/*--------------------------------*- C++ -*----------------------------------*\
| =========                 |                                                 |
| \\      /  F ield         | OpenFOAM: The Open Source CFD Toolbox           |
|  \\    /   O peration     | Version:  3.0.1                                 |
|   \\  /    A nd           | Web:      www.OpenFOAM.org                      |
|    \\/     M anipulation  |                                                 |
\*---------------------------------------------------------------------------*/
FoamFile
{
    version     2.0;
    format      ascii;
    class       volScalarField;
    location    "10";
    object      ccx;
}
// * * * * * * * * * * * * * * * * * * * * * * * * * * * * * * * * * * * * * //

dimensions      [0 1 0 0 0 0 0];

internalField   nonuniform List<scalar> 
303637
(
16.1625
16.2197
16.0054
16.0979
16.1631
16.2583
16.263
16.2175
16.3103
15.8589
15.8668
16.0126
15.8979
16.3805
15.8174
16.0344
16.1974
16.1524
16.107
16.2124
15.951
16.437
16.296
16.2483
16.3724
16.2599
16.2919
16.2661
16.2173
16.4708
16.5197
16.4244
16.2929
16.2677
16.2219
16.2451
16.407
16.2909
15.7942
15.8578
15.798
16.1633
15.8542
15.8601
16.0094
15.8706
15.8055
15.7951
15.6613
15.7306
16.325
16.6448
15.7395
15.5769
15.7055
15.8632
16.1612
15.9946
15.8966
16.1638
16.1561
16.2143
16.1279
16.0425
16.4082
15.7362
16.4516
16.2911
16.6799
16.5761
16.2772
16.246
16.3827
16.518
16.3558
16.2662
16.2761
16.2517
16.6062
16.6897
16.7144
16.6195
16.7333
16.3859
16.6362
16.2682
16.565
16.347
16.2989
16.2527
16.2736
16.6619
16.3971
16.2978
16.2905
16.2691
16.2332
16.245
16.2673
16.2321
16.3215
16.3093
15.7573
15.7861
15.854
16.015
15.8589
15.8612
16.1662
15.7663
15.805
15.7892
15.6286
15.7598
15.7215
15.5647
15.6359
15.7309
15.7334
15.6662
15.4757
15.389
15.4739
16.2893
16.917
15.329
15.3642
15.6837
15.5427
15.7727
15.5382
16.0324
16.024
15.725
16.1333
15.8025
16.345
16.4119
15.9682
15.9305
15.7841
15.7951
15.8587
15.8716
15.828
15.7941
15.6985
16.0335
16.1326
16.1663
16.1595
16.2047
16.5785
15.3809
16.7026
16.4418
16.9088
16.8191
16.2778
16.4895
16.4682
16.2856
16.2803
16.6216
16.7234
16.9029
17.0157
16.5334
16.8264
16.8751
17.0229
17.077
16.6719
16.3842
16.6301
17.0493
17.0191
16.8437
16.3899
16.2664
16.2871
16.4828
16.8656
16.742
16.8993
16.2432
16.6364
16.7653
16.244
16.272
17.0167
16.9755
16.9534
16.6124
16.6326
16.4187
16.3649
16.4026
16.2729
16.3016
16.2637
16.2839
16.2503
16.2811
16.2639
16.2505
16.2759
16.223
16.2415
16.2209
16.1782
15.7785
15.752
16.0164
15.8641
16.1667
15.7532
15.7187
15.7513
15.7346
15.5857
15.7525
15.7253
15.6324
15.3913
15.3915
15.7802
15.7331
15.5775
15.3331
15.6459
15.7588
15.763
15.6558
15.7771
15.7545
15.4961
15.7498
15.7767
15.4438
15.7497
15.6727
15.2315
15.1554
15.2355
15.1543
15.2478
15.1033
15.3555
15.2078
16.2619
17.2106
15.0414
15.0492
15.3737
15.6611
15.4623
15.2413
15.9093
15.8043
15.6672
15.4086
15.5479
15.041
15.5236
16.0364
16.0347
16.0671
15.8215
15.775
15.4954
16.4184
16.5372
16.2718
16.5285
15.9619
15.9245
15.8353
15.8764
15.8639
15.8133
15.8117
15.8118
15.7262
15.7606
15.7586
15.7595
15.6072
15.7118
15.7487
15.8
15.8088
15.7617
16.062
16.1251
16.2116
16.1591
16.167
14.8419
14.9969
16.9589
16.8161
17.209
17.0979
16.9794
17.2018
17.5435
17.3546
17.3196
17.0255
16.9977
17.4613
16.5191
16.7298
17.0504
16.8416
17.1842
17.3735
17.3368
17.3449
17.3325
17.0182
16.5348
16.7051
16.3769
16.5372
16.289
17.542
17.2818
17.2856
17.1524
17.0043
17.0812
16.4851
16.2906
17.0046
16.8588
16.5281
16.6287
16.9963
17.1187
17.5366
17.2676
16.8908
16.6705
17.0956
17.3275
16.8107
17.1577
16.5865
16.3968
16.381
16.3991
16.5269
16.2712
16.2974
16.2724
16.2529
16.2767
16.2723
16.2525
16.2742
16.2258
16.2333
16.226
16.295
16.2608
16.1608
16.0138
15.8635
16.1656
15.7434
15.7743
15.7716
15.7414
15.6486
15.6232
15.7512
15.7534
15.7725
15.437
15.4598
15.1631
15.776
15.027
15.2542
15.4518
15.1996
15.1909
15.5859
15.0769
15.5851
15.745
15.7454
15.5595
15.7479
15.5673
15.3821
15.3159
15.3234
15.7483
15.0571
15.186
14.932
14.9196
14.8596
14.851
14.9892
15.0957
14.9256
14.932
14.7053
15.2029
15.0238
15.0527
14.9057
16.2512
17.5257
14.7258
14.7371
15.3655
15.6547
15.2098
14.7745
15.1935
15.0264
14.9406
15.911
15.5178
15.7834
15.686
15.9363
16.0106
15.0532
15.4342
15.5451
15.6882
15.535
14.6217
15.5274
15.5103
16.0387
16.035
16.1595
15.9034
16.035
16.4134
15.8058
16.0841
15.7933
15.3699
15.216
16.5283
16.535
16.3074
15.9678
15.8631
15.8776
15.8358
15.7736
15.6673
15.7585
15.4946
15.6731
15.7401
15.7748
15.7537
15.7769
15.9061
15.7178
15.7699
15.7214
15.8127
15.7908
15.8306
15.6861
15.7708
15.8137
16.0897
16.166
16.1523
16.1927
14.3889
14.5496
14.4265
14.5367
14.6185
14.745
17.5336
17.2285
17.39
17.2301
17.5129
18.0389
17.8152
17.7923
17.5471
17.6083
17.5397
17.6519
17.3451
17.61
17.0158
16.9531
17.0075
17.4613
17.4575
18.1087
16.3735
16.522
16.6845
17.0292
17.1599
17.32
16.8567
17.4946
17.7329
17.5522
17.4777
17.6139
17.1541
17.316
16.5552
16.2708
16.3368
16.1043
16.2722
16.2819
16.2556
16.2091
16.1882
16.2264
16.2541
16.2094
18.0452
17.806
17.8133
17.5601
17.5432
17.3592
16.3873
16.367
16.6281
16.335
16.4368
17.0389
17.2233
17.5295
16.8948
16.7179
16.6103
16.9283
16.8465
17.2452
17.5413
17.8974
18.0329
17.8694
17.5819
16.4068
16.5407
16.4091
16.379
16.2704
16.2677
16.2919
16.2631
16.2753
16.2479
16.2624
16.2712
16.2464
16.2466
16.245
16.2953
16.011
16.16
15.8655
15.5705
15.7464
15.5878
15.7452
15.3546
15.3369
14.9258
14.8752
15.0716
15.0805
15.0466
14.6124
14.64
14.688
14.9352
15.28
15.3621
15.1019
15.591
15.4208
15.6331
15.7041
15.7076
15.0648
14.8489
15.0582
14.7476
14.5737
14.7586
14.5978
14.6285
14.5129
14.7187
14.8362
14.7941
14.6338
14.8117
14.681
14.8128
14.2897
14.4198
14.4341
14.8145
14.6892
16.2519
17.8365
14.4169
14.4407
15.6567
15.0632
14.9286
14.4027
14.7799
14.5955
14.3832
15.0262
15.221
14.9451
15.035
14.7665
14.6198
15.8653
15.8746
16.0256
15.0456
14.6188
15.6759
15.4247
15.6986
15.7312
15.6169
15.5459
15.535
15.535
14.3643
14.369
15.527
15.5302
15.3711
15.2294
16.0734
16.0305
16.035
16.035
16.1598
15.9072
16.1634
15.9052
16.035
16.3705
15.8226
15.7181
15.0651
16.5325
16.535
16.535
16.1361
16.4587
15.9659
15.5753
15.7383
15.7578
15.7822
15.7554
15.7817
15.9383
16.0104
15.8666
15.8599
15.8035
15.8193
15.8889
15.8605
15.8013
15.7408
15.7682
15.7605
15.8012
15.7682
15.7977
15.7778
15.7458
15.6856
15.7587
16.1607
16.1491
14.2509
14.1653
14.2211
14.4458
14.2666
14.2622
14.1744
14.369
14.2492
14.3949
14.4108
14.5821
17.8122
17.632
17.6282
17.4122
17.8731
17.4808
17.5898
17.8226
18.5526
18.3519
18.249
18.0264
17.9997
18.0303
18.0472
17.7859
17.803
17.9884
17.5512
17.5397
17.3643
17.5953
17.783
17.9368
17.037
16.9531
16.9531
17.0103
17.5486
17.0209
17.5484
17.4575
18.1087
17.5425
16.9531
17.4613
18.1125
18.5576
18.5486
18.6169
16.5233
16.5822
16.8645
16.8587
17.1507
17.2719
17.4648
17.9501
18.0318
17.7989
17.776
17.7622
17.9363
17.4554
17.5841
16.1502
16.2479
16.2244
16.2658
16.2912
16.127
16.218
16.2207
16.2647
16.2005
16.2198
16.163
16.1549
16.1624
18.2521
18.5392
18.2338
18.0391
18.4619
18.285
17.8329
18.0182
16.3083
16.3675
16.6343
16.3216
16.6378
16.3763
16.3886
16.1398
16.1267
16.1728
16.2603
16.3256
16.3324
16.2754
16.2295
16.2206
16.2749
16.3033
16.215
16.231
16.3994
17.0189
17.2767
17.5266
16.8773
17.5363
17.5539
17.2417
17.8251
18.0372
16.9642
16.5938
16.62
16.7218
16.4038
16.5385
16.3268
16.3333
16.3883
16.3726
17.8626
18.2793
18.2472
18.195
18.5304
18.2169
16.2497
16.2775
16.2721
16.2493
16.2968
16.2959
14.7957
14.7842
15.0098
14.8528
14.6192
15.0683
14.6716
15.3307
14.4045
14.369
14.369
14.3268
14.3158
14.5563
14.4955
14.506
14.4061
14.826
15.1662
15.4709
15.6174
15.7554
15.7265
15.2452
15.5408
15.6334
15.7772
15.7588
15.7764
14.4517
14.2652
14.4688
14.3374
14.3754
14.6082
14.3841
14.4825
14.2372
14.5149
14.3859
14.4462
14.5601
14.5039
14.589
14.1348
14.0226
14.0387
14.0373
14.0376
14.1433
14.3014
14.2528
14.2128
14.6033
16.2652
18.1027
14.1449
14.152
15.6645
14.7722
14.6062
14.165
14.1906
14.783
14.5323
14.2476
14.6048
14.3622
14.1605
14.0539
15.0414
15.035
15.2718
14.9712
14.7741
15.0713
14.6229
15.035
14.4852
14.3438
15.0468
14.6188
14.3709
14.3699
14.369
14.369
15.7508
15.6795
15.4408
15.7388
15.7068
15.6233
15.4056
15.9213
15.8499
15.909
15.7637
15.8078
15.7999
15.7562
15.7308
15.8002
15.8147
15.7364
15.7553
15.7009
15.5476
15.535
15.535
15.538
14.2313
14.1635
14.1691
15.3795
15.7966
15.3029
15.855
15.5396
15.2187
15.5078
16.0384
16.3029
16.0615
16.3156
16.035
16.035
16.1605
15.9079
16.1602
15.9096
16.035
15.9679
15.3602
15.6514
15.7714
15.4772
16.5382
16.8127
16.5644
16.411
16.7042
16.7419
16.535
16.535
16.2956
16.1149
16.5987
16.0213
16.0129
15.8582
16.1655
15.8575
15.868
15.7843
15.7852
15.7589
15.7503
14.0409
14.0191
14.0295
13.9907
14.0017
13.9858
14.0236
14.0233
14.1629
14.0287
14.1679
13.9823
14.1805
13.9909
13.9832
14.0329
14.158
14.1974
18.0523
17.9593
17.8109
17.9897
17.7493
18.1698
18.1578
18.8669
18.9827
18.9423
18.6014
18.681
18.3896
18.2982
18.5267
18.7245
18.2478
18.5094
18.2465
18.0256
18.1133
18.0303
18.325
17.8016
18.0824
18.2219
17.7436
17.8426
18.0535
18.1957
17.2775
17.3156
17.0277
17.4936
17.0977
16.9531
17.0105
17.5383
17.7174
18.0206
17.9201
17.3207
17.7345
17.5476
17.0243
16.7406
17.0312
18.0249
17.5757
17.8471
17.8592
17.5365
17.0266
16.9531
17.4613
18.1125
18.5323
18.5374
18.5003
18.6169
17.8509
17.5416
18.0328
16.9531
18.1445
17.5445
17.0016
17.009
17.5455
18.5502
18.5486
18.6169
18.6169
18.7126
18.825
18.9889
18.9512
18.9667
16.5232
16.8773
17.1614
17.4527
18.2123
18.1421
18.3224
18.2509
18.0291
18.0856
17.7379
16.1662
16.1575
18.5145
18.3121
18.4717
19.0034
18.729
18.8062
18.5247
18.3815
18.4889
18.5992
18.4137
16.1274
16.3903
16.6239
16.3453
16.3101
16.3323
16.5586
16.1311
16.1831
16.5231
16.3808
16.2348
16.2909
16.268
16.2597
16.2297
16.2366
16.2715
16.0177
16.0142
16.1652
16.1643
16.1648
15.9636
16.0204
16.1729
16.1741
16.1723
16.2509
16.2498
16.2784
16.369
16.2683
17.5043
17.0239
17.2129
16.829
16.6267
17.8143
17.5238
17.5386
17.2095
18.0488
16.9611
16.5618
16.7155
17.868
18.5362
16.4976
16.4739
16.5442
16.3828
16.2843
16.2692
16.2478
16.2499
16.2662
16.2384
16.2509
16.2434
16.2816
16.2665
16.239
16.2432
16.2629
18.8335
18.5598
18.7426
18.5538
18.1365
18.4499
18.9116
18.9803
18.6874
15.028
14.5931
14.6729
15.1223
15.0854
14.6573
14.4217
14.8799
14.3668
14.369
15.2361
14.3044
14.484
14.3059
14.4841
15.5101
15.6214
15.4375
14.1527
14.2934
14.1844
14.1852
14.0245
14.2135
14.2621
14.0704
14.0336
14.3126
14.1761
14.1311
15.7459
15.7484
15.7487
15.7538
15.7772
15.7765
14.1785
14.0646
13.9036
14.1973
14.0846
14.0329
14.3017
14.381
14.1297
14.3057
14.0108
14.0024
14.3136
14.1414
14.3698
14.3946
13.9232
13.942
13.9091
13.972
13.9836
13.9491
13.922
13.9074
13.9544
13.9716
13.9006
13.9056
13.9264
13.8835
13.9002
13.9562
13.9134
13.9274
13.8849
13.906
13.9519
13.8858
13.9089
13.8848
13.9064
13.9089
13.9313
13.9045
13.8997
13.9059
13.8993
13.9079
13.9152
13.9316
13.9066
13.9218
14.1158
14.0956
14.1879
14.0458
13.9256
13.933
14.4893
14.3376
13.9961
13.9071
13.956
13.9396
13.9492
13.9329
14.568
14.8683
14.5326
14.0676
14.216
14.3573
14.0316
14.3691
13.8413
14.6007
13.7403
13.8783
13.8894
13.9086
13.8714
13.9047
13.932
13.7829
13.9107
13.872
13.8878
13.9261
13.9367
13.8917
13.9056
15.0411
14.8673
14.8765
15.035
15.0581
15.1918
14.7654
14.4795
14.319
14.5772
15.035
14.2035
14.0677
15.0494
14.6188
14.3685
14.3674
14.3671
14.369
14.2399
14.2731
14.1581
14.1388
14.1749
14.1748
15.9306
15.7551
15.7178
15.6801
15.4401
15.7209
15.4451
15.9274
15.8139
15.805
15.7566
15.7692
15.6512
15.817
15.8257
15.7428
15.7749
15.7681
15.78
15.7858
15.638
15.7565
15.7563
15.7795
15.7861
15.6395
15.4353
15.8628
15.853
15.8518
15.8696
15.8611
15.8618
15.6972
15.55
15.535
15.535
15.5367
15.8251
15.273
15.5694
14.0013
13.9742
13.9486
13.9737
13.9471
14.0087
13.981
13.9699
16.0795
16.1021
15.5047
15.7114
15.6084
15.8214
15.8469
15.8996
15.3266
15.3093
15.1158
15.0517
15.0071
15.3297
16.1159
15.6823
15.9865
15.7055
15.8934
15.7639
15.9069
16.1084
15.4862
15.51
15.3021
15.0742
15.1548
16.0386
16.2956
16.2976
16.331
16.5854
16.3148
16.5263
16.1986
15.9943
16.1959
15.9965
16.4936
16.3289
16.3092
16.5163
16.5115
16.2491
16.035
16.035
16.1615
15.9044
16.162
15.9049
16.035
15.8884
16.1192
15.3312
15.6327
15.5303
15.2507
16.5345
17.0442
17.1089
16.8758
16.9879
16.7653
16.7905
16.8766
16.6053
16.6781
16.4114
16.4204
16.6101
16.3474
16.6126
16.8848
16.76
16.975
16.717
16.8899
16.6783
16.535
16.535
13.8992
13.9341
13.9046
13.8999
13.8975
13.8976
13.8887
13.9019
13.8791
13.8979
13.8887
13.8941
13.8795
13.9054
13.8781
13.8781
13.8981
13.8831
13.8848
13.9098
13.8825
13.8986
13.9098
13.9275
13.882
13.8981
13.8842
13.9006
13.8848
13.9513
13.954
13.9027
13.9493
13.8519
13.8328
13.8558
13.8684
13.8586
13.9172
13.7507
13.7761
13.7293
13.8379
13.8518
14.0058
13.9019
13.9482
13.9246
13.8794
13.8963
13.9248
13.8776
13.8776
13.8797
13.9516
13.9621
13.9366
13.9363
14.0082
18.202
18.1968
18.454
18.4845
19.223
19.1911
19.2171
18.9161
19.0589
18.9943
19.0763
18.8145
19.1937
19.2754
19.2141
19.3418
19.1641
19.1748
19.3481
18.7091
18.4222
18.7648
18.5771
18.8363
18.6572
18.8579
18.4915
18.4678
18.3774
18.6637
18.771
18.3434
18.0173
18.3098
18.4287
17.4038
17.2856
17.2533
17.5038
17.4559
17.1644
17.2378
17.3323
17.5487
17.7017
17.6976
17.5012
17.6922
17.3041
17.5177
17.831
17.106
17.1073
17.3103
17.7684
18.0199
17.5196
18.0165
17.7759
17.7022
17.7904
17.9219
17.4991
18.2979
18.2256
17.9569
17.8115
18.1042
17.2837
17.0658
17.2395
17.1212
17.3166
17.6755
17.9416
17.6025
17.6169
17.4009
17.4034
16.7949
16.4962
16.8893
16.9791
16.8822
16.5405
16.6784
16.4725
16.7469
16.6928
18.1988
18.186
17.7488
17.86
18.0289
18.0164
18.1388
17.7201
17.2844
18.0144
17.5368
16.8243
17.0235
16.543
17.0863
16.9531
18.1192
17.5475
17.5409
17.0103
17.0173
18.5345
18.5294
18.6169
18.6169
18.6851
18.6685
19.0284
18.7059
19.0506
19.0095
18.7027
18.4294
18.6233
19.0404
18.0354
17.8941
18.2798
18.0602
18.5695
18.5033
18.2849
18.0032
18.3045
18.3956
18.5973
18.6074
17.9452
18.6169
17.5389
17.9212
17.4846
16.6163
16.4815
17.0135
16.615
16.5117
16.64
16.5233
17.0352
17.9069
17.5367
18.8051
18.9648
18.9512
18.9659
18.9658
19.0545
18.7364
19.0309
18.9564
19.0022
19.3382
19.2218
19.4247
19.196
19.2062
19.1951
19.2074
19.2134
19.3752
19.2013
16.369
18.4103
18.4213
18.565
18.2923
18.673
19.3223
19.0004
19.2203
19.3789
19.3671
19.3622
19.1688
19.3132
19.0003
18.9589
18.6588
19.0799
18.7705
18.6543
18.6973
18.8207
16.3784
16.3099
16.3415
16.3164
16.1315
16.1393
16.0933
16.1443
16.2248
16.2363
16.3092
16.2979
16.2613
16.2216
16.2586
16.1988
16.2066
16.3171
16.3062
16.3854
16.3592
16.0253
16.1753
16.1627
16.1738
16.4522
16.3552
16.3264
16.3912
16.2692
16.2474
16.2452
16.2596
15.9532
15.8437
15.8675
15.8855
15.869
16.3951
16.2702
17.6766
17.3478
17.0215
16.9354
17.3345
16.6017
17.0757
17.4055
16.7704
16.5551
16.6991
16.6088
16.3959
17.7596
16.4755
16.3707
18.9793
16.2762
19.3039
19.2258
18.9957
19.3507
18.8895
19.1964
19.2561
18.9652
18.8205
18.3763
19.0339
18.7435
19.3007
19.2232
19.0685
19.2022
19.2102
19.3541
14.8222
14.5309
15.1636
15.0625
14.3869
14.2522
14.3531
14.2668
14.2377
14.1737
14.4537
14.5329
14.8873
14.8405
14.4757
15.2449
15.2608
15.2303
15.4442
14.1551
14.2425
14.1868
14.1843
14.1533
14.0105
14.0918
13.9613
15.5224
15.7331
14.0077
13.9512
13.9265
13.9554
13.9294
13.9518
13.9739
13.9286
13.9316
13.9779
14.0075
14.0087
13.8699
13.8963
13.9063
13.9037
13.8461
13.8574
13.9065
13.8518
13.8411
13.866
13.9018
13.9267
13.9022
13.8563
13.9246
13.7813
13.8003
13.7094
13.9878
13.8826
13.886
13.8797
13.867
13.8533
13.9535
13.8549
13.8984
13.8672
13.7916
13.7585
13.7782
14.0135
13.8995
13.9254
13.9251
13.9283
13.8999
13.9241
13.9762
13.9735
13.9091
14.0019
13.9111
13.9297
13.7856
13.7256
13.5879
13.8406
13.928
13.7963
13.5285
14.0568
14.0425
13.9387
13.9489
13.9348
14.1991
13.8579
13.9058
13.8675
13.8671
13.8745
13.8663
13.8654
13.8506
13.9024
13.8653
13.7729
13.7665
13.9168
13.8825
13.8812
13.8389
13.8375
13.8274
13.8146
13.8425
13.7265
13.8541
13.8459
13.7335
13.6965
13.6108
13.7806
13.833
13.7164
13.7976
13.6564
13.9842
14.0091
14.2048
13.8553
13.9585
13.9058
13.921
13.846
13.8564
13.923
13.8393
13.861
13.7232
13.76
13.8061
13.8613
13.8675
13.8308
13.8444
13.8442
13.8276
14.5538
14.4075
14.7137
14.4662
15.0337
14.7594
14.6548
14.9319
14.5331
13.7742
13.8829
13.8716
13.9022
13.9621
13.9394
13.9894
13.8854
13.9365
13.7793
13.9922
14.2086
14.2143
14.3255
14.3801
14.0218
13.8648
14.0096
13.5354
14.0471
13.5489
13.5513
14.6011
13.567
13.5452
13.3728
13.8059
13.7921
13.6606
13.5817
13.5633
13.6634
13.8059
13.792
15.0376
14.7859
14.3986
14.6637
14.6717
14.8714
14.6857
14.8785
14.705
14.9381
15.035
14.4779
14.2025
14.0833
14.02
14.3619
15.035
13.9297
13.7848
15.0685
14.5478
14.3796
14.3808
14.3835
14.376
14.242
14.1746
14.1646
14.162
14.1731
14.163
13.999
13.9749
13.9504
13.9496
14.0015
13.9264
13.9464
13.9227
13.9246
13.9258
13.9739
13.9806
15.9333
15.7556
15.7286
15.9332
15.8765
15.7125
15.7316
15.6829
15.5242
15.4854
15.8163
15.7683
15.7531
15.8292
15.7894
15.7428
15.8172
15.7664
15.441
15.6733
15.6506
15.7811
15.6551
15.7598
15.756
15.7799
15.7355
15.7797
15.7578
15.743
15.6443
15.7615
15.778
15.523
15.4214
15.6805
15.539
15.3812
15.6853
15.535
15.5401
15.7883
15.2918
15.5294
16.2675
15.9675
15.7188
15.589
16.0174
16.1024
15.863
15.7534
15.3006
15.0663
15.0032
15.462
15.2566
15.5943
13.9024
13.8811
13.8802
13.8931
13.8992
13.8946
16.1947
16.1878
16.2568
16.0004
15.9963
15.4086
15.6019
15.6
15.4129
15.7907
15.7918
15.5999
15.7894
15.4065
15.7958
15.1964
15.2006
15.3995
15.1975
14.9928
14.9977
15.1967
14.9916
14.8498
14.8158
14.7494
15.0001
15.1845
14.8006
14.7981
15
16.2051
16.1083
16.0026
15.5976
15.4848
15.6785
15.5985
15.7996
15.4805
15.7959
15.8904
16.1528
16.0777
15.8949
15.8966
15.634
15.7187
15.995
15.2969
15.3984
15.2014
15.1256
14.9993
15.0941
16.0434
16.2675
16.3322
16.4131
16.4003
16.6033
16.8041
16.7939
16.5995
16.4034
16.597
16.3081
16.4876
16.4012
16.2101
16.6
16.3856
16.6232
16.7124
16.5168
16.035
16.035
16.1704
15.9065
16.1622
15.9083
16.1679
15.9134
15.4107
15.2144
15.5284
15.335
15.0115
15.1062
17.1987
17.1947
16.9843
16.988
16.9975
17.1939
16.7997
16.7973
16.996
17.0001
16.8103
17.1896
16.8944
16.9094
16.8749
17.1571
17.0783
17.0809
16.7977
16.9965
16.7989
16.6021
16.535
13.7989
13.788
13.8016
13.8129
13.8018
13.6674
13.6594
13.5328
13.6562
13.5374
13.6675
13.5125
13.7987
13.8801
13.9024
13.88
13.906
13.882
13.8992
13.8795
19.3048
19.4041
19.3981
19.3973
19.416
19.2478
19.4058
19.4207
19.435
19.4217
19.3859
19.2431
19.2815
19.0465
18.8957
19.1242
19.0905
19.0507
19.2549
19.3771
19.3127
19.4033
19.4162
19.5063
19.4641
19.4889
19.4747
19.4827
19.5056
19.4635
19.4642
19.4706
19.4872
19.4053
19.5051
19.5304
19.5157
19.5288
19.505
19.5176
19.2428
19.3058
19.4882
19.3557
19.2969
19.4022
19.5135
19.5058
19.479
19.5054
19.5228
19.4821
19.4634
19.4825
19.5082
19.5162
19.5078
19.5069
19.5245
18.9566
19.079
18.6169
18.5793
18.6878
18.9057
18.5579
17.5933
17.3997
17.4004
17.6005
17.5802
17.3852
17.4699
17.2644
17.2687
17.2025
17.4021
17.4018
17.1978
17.7791
17.6958
17.7118
17.8035
17.7918
17.7979
17.5994
17.799
17.5986
18.0177
17.9339
17.9114
17.3156
17.5167
17.3006
17.5134
17.0851
17.9962
18.2622
17.7369
17.974
17.707
17.4013
17.6046
17.6068
17.3978
18.3046
17.9602
17.81
17.8043
17.8
17.6139
17.9688
17.9817
17.9264
17.9314
17.9123
17.9502
17.981
17.9315
17.7986
17.9452
18.0225
18.0359
17.9462
17.945
18.0117
18.0206
17.393
18.4077
18.6647
18.2766
18.701
18.237
17.9728
17.9319
17.949
18.0295
18.0441
17.8001
17.9486
17.947
18.0317
18.0639
18.0119
17.9327
17.9829
17.932
17.9812
18.3034
18.0335
18.0794
18.0933
18.1383
18.2106
18.0385
18.0321
18.0624
18.0404
18.0792
17.1882
17.0923
17.1982
17.1873
16.9987
17.933
17.9687
17.9455
18.0224
18.0181
17.9456
18.0171
17.945
17.9449
18.0173
18.0174
16.728
16.8895
16.8944
16.7337
16.5472
16.5249
16.3157
16.4049
16.5993
16.405
16.6009
16.8024
16.996
16.9986
16.8088
16.8083
16.4
16.6011
18.2836
18.4225
18.2841
17.9348
17.9804
17.9682
17.9339
17.9367
17.9806
18.1351
18.0434
18.0748
18.0418
18.0622
18.0094
18.27
18.3896
17.7757
17.9179
17.6693
17.5207
17.4173
17.5317
18.2214
18.0279
18.0224
17.1494
17.0378
17.0383
17.2825
16.3167
16.5931
16.5412
16.8952
16.6568
16.7643
17.2154
17.1429
17.2029
17.1255
17.1703
16.9967
17.0547
17.0527
17.0021
17.1955
17.0001
17.9739
18.0279
18.2742
18.5893
18.5377
18.5402
18.6169
17.4983
17.9066
17.5039
17.8425
17.5338
16.6306
16.5244
17.0357
16.5113
17.0375
16.6227
17.0164
19.0275
18.6424
19.024
19.0397
19.0394
18.7452
19.0803
19.0794
19.0724
19.5477
18.9936
19.5464
19.362
19.5549
19.2625
18.9504
18.8309
18.7923
18.545
18.6685
18.5536
18.9885
18.9266
18.6457
18.6138
19.5508
18.2164
17.7888
17.9451
19.0175
18.7008
19.0244
19.0649
18.5964
18.7125
17.9797
18.2547
17.9785
18.6002
18.4612
18.239
19.2499
18.7597
18.945
18.657
18.3578
18.0224
18.0313
19.0295
19.0264
17.5514
17.5024
17.826
17.9789
16.386
16.306
16.6503
16.3806
16.2772
16.3206
16.3617
16.5458
16.3549
16.465
16.3676
16.1571
16.2314
16.334
16.1408
16.3661
16.2988
17.0082
16.5815
16.6682
16.5836
16.3776
16.3396
16.3877
16.3198
16.6672
16.3072
16.4727
16.3821
17.0599
17.8274
17.5271
19.2497
19.1787
19.1806
19.2115
19.334
19.1868
19.2002
19.1989
19.1902
19.2006
19.1873
19.1981
19.21
19.1944
19.3385
19.1963
19.3646
19.2345
19.1686
18.8637
19.122
19.2638
19.3357
19.4047
19.7084
19.5937
19.6402
19.5862
19.5698
19.5413
19.6545
19.6898
19.5976
19.5737
19.5703
19.7093
19.6042
19.7738
19.5719
19.566
19.722
19.7687
19.3092
19.3162
19.3334
19.3378
19.4137
19.4052
19.3727
19.4246
19.4144
19.4115
19.3808
19.5468
19.8138
19.6316
19.5886
19.6109
18.6357
19.5589
19.3925
19.5102
19.3927
19.5112
19.4991
19.5331
19.4625
19.4949
19.5324
19.5333
19.502
19.468
19.5327
19.4983
19.5112
19.5339
19.5063
19.472
19.5009
19.5325
19.5
19.5151
19.5171
19.5217
19.5381
19.4979
19.5113
19.5381
19.5262
19.5359
19.49
19.5236
19.4774
19.5188
19.4823
19.5109
19.5351
19.5077
19.3574
19.2607
19.3966
19.6213
19.529
19.5408
19.5413
19.5419
19.6292
18.9381
19.3085
19.2087
18.8147
18.9936
16.1587
16.1531
16.214
16.2252
16.2268
16.2641
16.2897
16.2615
16.2286
16.239
16.262
16.2755
16.2754
16.2369
16.2284
16.2634
16.0784
16.2816
16.2557
16.2111
16.1991
16.2571
16.2123
16.1986
16.0192
16.156
16.0113
16.1688
16.1539
16.1679
16.2463
16.2726
16.2457
16.2674
16.3851
16.2675
16.2627
16.2437
16.2443
15.8683
16.2772
16.2633
15.8725
15.8674
17.5456
17.3081
17.0843
17.3015
17.1736
17.6069
17.6734
17.0446
17.0761
16.7867
16.8064
16.5704
16.7989
16.8913
16.616
16.3271
16.3119
16.3157
16.3002
16.3874
16.3875
16.5015
16.5348
16.3991
16.2483
16.2689
16.2723
16.2849
16.2469
16.2856
19.2051
19.2062
19.3496
19.5032
19.5032
19.5294
19.5294
19.4573
19.5004
19.5268
19.4502
19.4925
19.4476
19.4498
19.4991
19.5267
19.4964
19.5149
19.3859
19.3858
19.5282
19.5009
19.4988
19.4703
19.5064
19.4032
19.2107
19.4987
19.1681
19.2415
19.5764
19.4903
19.4751
19.5085
19.5732
19.5549
19.5546
19.5517
19.4822
19.5404
19.5569
19.6828
19.5538
19.5586
19.4995
19.6624
19.5765
19.5093
19.4876
19.4625
19.4845
19.5097
19.4874
19.4188
19.1975
18.6079
19.395
19.5417
19.0507
19.5356
19.4953
19.5241
19.4908
19.4701
19.6063
19.5351
19.4947
19.5352
19.3971
19.3848
19.531
19.5063
19.5129
19.5299
14.5396
14.7836
14.994
14.5266
14.0217
14.2072
14.3408
15.1847
15.3541
14.885
15.2781
14.1751
14.0452
14.0281
14.0503
14.2162
13.8701
14.1323
14.0236
13.8616
13.9682
13.9516
13.9241
13.9116
13.9442
14.3268
13.768
13.8816
13.6441
15.5268
15.5461
15.6425
13.9305
13.9266
13.9298
13.9269
13.9455
13.9425
13.9573
14.2209
14.0354
14.0159
13.8721
13.8688
13.8687
13.8716
13.8851
13.7265
13.8441
13.8306
13.8967
13.6687
13.8429
13.8452
13.8984
13.8817
13.8816
13.8941
13.9732
13.8948
13.8057
13.7911
13.7956
13.5862
13.5281
13.7894
13.8057
13.7961
13.6374
13.7961
13.6549
13.4752
13.6513
13.8081
13.7892
13.8082
13.662
13.5796
13.6626
13.5354
13.5142
13.453
13.8025
13.7971
13.8026
13.5625
13.3705
13.546
13.6629
13.5562
13.8067
13.8066
13.8066
13.8067
13.7859
13.6526
13.6631
13.9043
13.8843
13.8844
13.9102
13.8962
13.5215
13.6562
13.6585
13.7989
13.7986
13.7899
13.3711
13.3941
13.261
13.533
13.748
13.5054
13.6454
13.2392
13.0346
13.2243
13.2481
13.931
13.7915
13.6384
13.817
13.8034
13.8043
13.8053
13.8055
13.7982
13.8046
13.7927
13.661
13.5744
13.6563
13.6579
13.5572
13.7936
13.7939
13.7802
13.7991
13.4787
13.7995
13.6518
13.5237
13.5346
13.5563
13.4145
13.3251
13.6088
13.4977
13.6053
13.7981
13.7955
13.7989
13.7903
13.8039
13.5423
13.6582
13.6571
13.8036
13.8101
13.8048
13.8098
13.6597
14.5487
14.0095
14.4869
14.3914
14.4656
14.2364
14.6998
14.5017
14.4752
14.2323
14.7681
14.4882
14.7066
14.7596
14.5306
14.893
14.9307
14.5365
13.5419
13.2836
13.4906
13.5551
13.7478
13.8681
13.8064
13.7955
13.845
13.8065
13.864
13.6614
14.0231
13.9013
13.8585
13.8954
13.8972
13.9181
13.9775
13.8836
13.862
13.8983
13.9257
13.9283
14.2278
14.0381
14.3344
14.0209
13.7428
14.047
13.7363
13.9258
13.8695
13.9532
13.8945
13.9255
13.8666
13.9771
13.9602
13.91
13.8462
13.8594
13.7737
13.842
13.9068
13.8601
13.035
13.535
13.3728
13.3868
13.3777
13.3218
13.4643
13.4614
14.3433
14.5438
13.3702
13.464
13.4655
13.4637
13.1994
13.1705
13.0824
13.4637
13.4612
15.0339
14.8355
14.4088
14.6068
14.8531
14.7112
14.4537
14.5377
14.0179
14.2499
14.5981
14.5949
14.7917
14.6007
14.6018
14.599
14.796
14.8008
14.6084
14.8072
15.0019
15.035
14.1888
13.9256
13.8515
14.0732
13.7419
13.5291
14.1657
13.8258
14.2942
15.0538
13.6438
13.5115
14.55
14.8669
14.3422
14.3441
14.035
14.2327
14.2353
14.1746
14.0319
14.0085
13.989
13.9319
13.9833
13.9811
13.9318
13.9805
13.9595
13.9595
13.9023
13.8792
13.893
13.8792
13.881
13.8925
13.8786
13.8981
15.9297
15.8439
15.8992
15.7646
15.8166
15.8083
15.7701
15.7332
15.8218
15.8092
15.772
15.7924
15.7572
16.0111
15.855
15.8627
15.8
15.856
15.7997
15.7445
15.767
15.7668
15.9353
15.7306
15.7576
15.7736
15.7398
15.7163
15.7382
15.7175
15.7752
15.7697
15.7418
15.6526
15.6364
15.576
15.4793
15.7808
15.7593
15.7807
15.7618
15.7795
15.7531
15.7813
15.7645
15.7367
15.7356
15.778
15.6591
15.7649
15.7008
15.6602
15.3044
15.6246
15.6047
15.2457
15.4032
15.8491
15.5343
15.6357
15.6016
15.3932
15.5387
15.2061
15.8572
15.4933
15.5284
15.6965
15.7566
15.8831
16.0986
15.5155
16.0403
15.3075
15.067
14.9923
15.2803
15.406
15.6
15.4148
15.6019
16.2791
15.794
15.9965
16.1902
15.6
15.599
15.3983
15.8005
16.1895
15.9996
16.1902
15.8091
15.9998
15.1837
15.1876
14.9981
14.9965
14.7945
14.606
15.9996
16.1913
15.6021
15.4026
15.4003
15.7993
15.9942
15.803
16.1884
15.6116
15.2031
15.198
15.0011
16.0419
16.3975
16.4046
16.6081
16.8032
16.035
16.1642
15.9043
16.1643
15.9051
16.0727
15.9786
16.0329
16.1326
15.935
15.4065
15.203
14.9978
16.9953
16.9954
17.1867
17.1913
13.4392
13.4584
13.3347
13.2888
13.4065
13.3863
19.5079
19.5095
19.5253
19.4588
19.5227
19.3207
19.4226
19.5235
19.5375
19.5117
19.514
19.5379
19.5391
19.5385
19.5231
19.4384
19.5271
19.5204
19.4983
19.5157
19.5368
19.4342
19.5182
19.5356
19.4936
19.4534
19.1655
19.3383
19.3577
19.2065
19.3913
19.54
19.5504
19.6125
19.5515
19.5286
19.5601
19.6439
19.5162
19.5503
19.53
19.4941
19.5178
19.4917
19.5165
19.5542
19.5704
19.5565
19.5158
19.5554
19.5387
19.5138
19.5376
19.5386
19.5134
19.4917
19.5376
19.5126
19.4788
19.5052
19.5409
19.4945
19.5163
19.4822
19.4974
19.5108
19.5182
19.5783
19.5988
19.5688
19.6758
19.6727
19.7106
19.6062
19.5795
19.4234
19.5918
19.4983
19.5354
19.537
19.2001
17.5953
17.3925
17.6033
17.3889
17.7972
17.7999
17.9461
17.9488
18.0094
18.0764
18.0052
17.9907
17.9459
17.94
18.0057
17.9417
18.0053
17.942
18.003
17.337
17.3871
17.3467
17.4043
17.2641
17.2588
17.405
17.4585
17.4196
17.4691
17.5467
17.61
17.6015
17.6363
17.542
17.6029
18.2614
18.3301
18.159
18.084
18.0344
17.929
17.9698
18.0523
17.9553
18.0389
17.8154
17.86
17.868
17.8174
17.8201
18.0268
18.0291
17.956
17.9608
18.6971
17.6608
17.6796
17.7485
17.7515
17.9529
17.9542
18.0697
18.0237
18.0321
17.9532
18.0273
18.5875
18.1076
18.0258
18.0699
18.0771
18.2169
18.0794
18.1168
18.0231
18.0671
17.949
17.9489
18.5906
19.0751
18.3549
18.0616
18.0922
18.1725
18.1004
18.0969
18.0629
18.202
18.3568
19.0249
19.3125
18.058
18.0997
18.199
18.0602
18.0592
18.0907
18.0566
18.2518
18.37
18.3599
18.1426
18.0874
18.0636
18.1024
18.0665
18.0205
18.042
18.0337
18.14
18.0427
18.0202
18.0474
18.2498
18.149
18.0433
18.0261
18.0277
18.0539
16.7458
16.8025
16.7494
16.7986
16.6607
16.6128
16.6776
16.6387
16.8039
16.6037
16.9413
16.9152
16.9524
16.8556
16.8451
16.4242
16.5502
16.5928
16.5322
16.4036
16.4622
16.4609
16.4074
16.4091
16.1983
18.5271
18.371
18.0911
18.0609
18.1403
18.1665
18.0594
18.0864
18.0843
18.3628
18.0448
18.087
18.2614
18.1526
18.0418
18.068
18.0409
18.0442
18.5103
18.616
17.9204
17.9583
17.9094
17.6614
17.7993
17.6262
17.6717
17.8148
17.7781
17.7438
17.849
17.913
17.6789
17.4075
17.3252
17.513
17.4242
17.3896
17.4682
17.5408
17.5856
17.535
18.4018
18.5265
18.042
18.035
17.1642
17.035
17.1362
17.1813
16.9067
17.0338
17.064
17.0364
16.9549
16.9965
16.9046
17.1584
17.338
17.2279
17.2653
16.0386
16.2119
16.188
16.5829
16.5386
16.6798
16.7865
16.9175
16.8101
16.8476
16.7734
16.7411
16.6693
16.6121
16.6663
18.2811
18.2504
18.7396
19.0201
19.0272
18.7498
18.5234
19.0274
19.0403
17.8622
17.4931
17.9631
17.4868
17.4987
17.8999
17.855
17.5379
16.3651
16.6572
16.5982
16.2863
16.3877
16.3817
16.3658
16.9978
16.2668
16.0344
16.1859
16.3388
17.0068
16.6483
17.0195
16.5855
16.4797
16.3216
16.3135
16.3037
16.2958
16.3813
17.0295
19.5449
18.7615
19.0366
19.5436
19.5457
19.0311
19.3443
19.3207
19.5058
19.5125
19.5297
19.2228
19.3007
19.8799
19.9207
20.0526
19.0836
19.2041
19.8638
20.0364
19.7775
19.5693
19.5343
20.0416
19.517
19.834
19.8762
19.0736
18.7887
19.0361
18.6963
18.3622
18.5877
19.5556
19.3922
19.0258
18.9167
19.0746
19.4108
18.7694
19.0071
19.1846
20.0306
18.1085
19.2271
19.535
19.0375
19.2797
19.5314
19.5228
19.0201
19.2206
19.2594
17.8559
18.7146
18.3098
18.3003
19.1955
18.7705
18.2161
18.5311
17.8876
17.9927
18.3956
19.4514
19.5543
19.5408