/*--------------------------------*- C++ -*----------------------------------*\
| =========                 |                                                 |
| \\      /  F ield         | OpenFOAM: The Open Source CFD Toolbox           |
|  \\    /   O peration     | Version:  3.0.1                                 |
|   \\  /    A nd           | Web:      www.OpenFOAM.org                      |
|    \\/     M anipulation  |                                                 |
\*---------------------------------------------------------------------------*/
FoamFile
{
    version     2.0;
    format      ascii;
    class       volScalarField;
    location    "10";
    object      ccy;
}
// * * * * * * * * * * * * * * * * * * * * * * * * * * * * * * * * * * * * * //

dimensions      [0 1 0 0 0 0 0];

internalField   nonuniform List<scalar> 
303637
(
17.389
17.3644
17.3779
17.1843
17.3903
17.3436
17.4181
17.3673
17.2689
17.4016
17.348
17.3726
17.271
17.1243
17.1744
16.8534
17.3343
17.3585
17.23
17.0085
17.0232
17.3814
17.4125
17.483
17.5143
17.4201
17.4341
17.4189
17.3749
17.0148
17.2604
17.5044
17.3997
17.4159
17.3751
17.3563
17.3025
17.0472
17.384
17.4025
17.3422
17.3971
17.4
17.3744
17.3741
17.2449
17.3571
17.3859
17.3159
17.1365
16.8373
17.1154
17.3524
17.1694
16.8937
16.7072
16.7202
16.5581
17.2236
17.3992
17.3705
17.3513
17.2448
16.9922
16.7587
17.0135
17.6186
17.4784
17.3761
17.4994
17.6327
17.4834
17.7023
17.6861
17.7133
17.6284
17.4886
17.4818
16.8139
16.6765
17.0023
17.0084
17.312
17.6939
17.6533
17.6305
17.6008
17.5337
17.4422
17.4817
17.4916
17.3648
17.4819
17.4351
17.3746
17.4277
17.3806
17.3393
17.4282
17.382
17.1346
16.8268
17.4298
17.3797
17.3995
17.3787
17.3974
17.3686
17.3998
17.3627
17.3482
17.3803
17.2875
17.4295
17.4261
17.3989
17.5343
17.4077
17.4478
17.5446
17.0205
17.2737
17.4967
16.5471
17.1216
17.1383
16.8587
16.5698
16.7097
16.9522
16.621
16.6199
16.4377
16.36
16.4071
16.3843
16.422
16.4331
16.2418
17.2663
17.3463
17.3782
17.3972
17.3699
17.3395
17.3779
17.2033
17.0395
17.2663
17.3989
17.3726
17.3316
16.5084
17.0404
17.6429
17.796
17.3753
17.5356
17.7966
17.8008
17.8075
17.7962
17.7981
17.8048
17.8004
16.7896
16.686
16.6111
16.3874
16.446
16.9659
16.5833
16.2304
16.8702
17.0188
17.1844
17.3724
17.5795
17.6921
17.6289
17.796
17.7977
17.7109
17.7911
17.6844
17.4863
17.6628
17.7921
17.4863
17.4865
17.1667
17.5684
17.6196
17.3733
17.6392
17.5215
17.305
17.6942
17.6249
17.433
17.3917
17.3734
17.4763
17.484
17.3932
17.4766
17.0376
17.3612
17.3417
17.3611
16.8588
17.488
17.4232
17.3804
17.4005
17.4015
17.4262
17.4461
17.4315
17.392
17.5072
17.4289
17.4478
17.5523
17.3229
17.4571
17.4877
17.4842
17.6221
17.3927
17.7105
17.6345
17.6346
17.7118
17.4861
17.4979
17.6928
17.4987
17.486
17.6683
17.6369
17.7205
16.6764
17.0268
16.7824
17.2964
17.4906
17.3267
17.6151
17.6878
16.2353
17.143
17.1377
16.8617
16.5693
16.2516
16.4051
16.4055
16.8488
17.0055
16.882
16.9915
16.6139
16.6772
16.1602
16.1784
16.6061
16.1106
15.9342
16.075
16.1232
16.1161
16.1755
15.9301
16.2235
15.9374
17.2425
17.3413
17.3711
17.4004
17.3721
17.3712
17.3695
17.4198
17.4053
17.4136
17.4105
17.4783
17.2068
17.3682
17.3342
17.3673
17.4001
17.0252
17.2508
17.3558
17.3742
17.4032
16.9462
17.1493
17.5952
17.806
17.4897
17.6478
17.8113
16.7877
16.6833
16.859
16.4115
16.1641
16.7007
16.2487
16.6198
15.9394
16.2054
16.0803
16.4361
16.9338
17.2931
16.6125
16.2457
15.9135
15.9629
15.8649
16.8578
17.0573
17.2073
17.1617
17.4307
17.569
17.5954
17.7913
17.784
17.8109
17.7961
17.7852
17.7919
17.8016
16.9746
17.1613
17.4834
17.1673
17.5702
17.5827
17.3316
17.7847
17.7552
17.7817
17.7899
17.6217
17.4348
17.5007
17.6929
17.799
17.6294
17.4383
17.4264
17.4841
17.4894
17.4256
17.4843
17.3866
17.3819
17.3484
17.3812
17.7961
16.9226
16.8396
17.3767
17.3983
17.3991
17.496
17.489
17.4825
17.4812
17.6939
17.7151
17.6253
17.6331
17.4828
17.6766
17.6561
17.5473
17.4886
17.1842
17.5765
17.3338
17.6632
17.6456
17.797
17.3977
17.815
17.7975
17.7982
17.8074
17.7997
17.8097
17.7897
17.8042
17.8008
17.7973
16.5735
16.3896
16.6999
16.4259
17.2773
17.0301
17.4931
17.629
17.5778
17.6299
17.3117
17.8074
17.7996
17.7998
17.6923
15.9393
17.1719
17.1568
16.8717
16.2604
15.949
16.1302
16.4294
15.9361
16.1742
16.1542
16.8376
16.9985
16.8998
16.8401
17.2353
17.0023
16.6829
17.0054
16.6069
16.8404
16.175
16.6773
15.6814
15.8047
15.6742
16.175
16.8335
16.8316
16.5912
15.7841
15.7809
15.7243
15.5329
15.9637
15.8191
15.6808
16.175
15.4664
15.6322
17.3985
17.3654
17.3326
17.4755
17.6958
17.624
17.6541
17.5078
17.4155
17.4755
17.4815
16.9974
17.2182
17.3963
17.4074
17.3581
17.3611
17.3344
17.3264
17.254
17.4099
17.3635
17.2556
17.3995
17.3699
17.3373
16.8064
16.7496
17.0445
17.0458
17.0936
17.4018
17.5308
17.7674
17.6446
17.8026
16.8021
16.6881
16.8871
16.4258
16.1695
16.6486
16.7569
16.9968
15.9328
16.238
15.6891
16.1703
16.6917
15.6013
16.2525
16.2487
16.8465
16.6045
15.518
15.5726
16.0883
15.9259
15.7154
16.4507
17.3474
17.5925
16.1039
15.935
15.7474
15.6128
15.6703
16.9952
17.2306
17.2098
17.3679
17.4123
17.4088
17.3678
17.3308
17.3299
17.4048
17.3657
17.168
17.4223
17.5587
17.5649
17.7799
17.7831
16.8433
16.8289
16.996
16.9894
17.2502
17.1598
17.5199
17.1545
17.5573
17.559
17.3797
17.7674
17.7714
17.7643
17.5618
17.4577
17.1406
17.56
17.7724
17.4873
17.7928
17.6795
17.6882
17.6205
17.6239
17.4144
17.4042
17.4755
17.473
17.3997
17.4782
17.4743
17.4809
17.4816
17.7966
17.3719
17.398
17.3952
17.8049
17.797
17.8129
17.7968
17.7931
17.786
17.6062
17.6706
17.7857
17.7828
17.1873
17.1085
17.529
17.3617
17.5632
17.5692
17.7861
17.7769
17.6767
17.5047
17.5097
17.4422
17.4043
17.7904
17.421
16.2771
16.5941
16.4517
16.3008
16.1648
17.4068
17.2921
17.5008
17.6192
17.7885
17.6063
17.7871
17.6493
17.8027
17.1945
17.347
17.4661
17.7965
17.7033
15.6389
17.1856
17.1453
16.8825
15.6494
15.9902
15.8711
16.5591
15.9099
16.1716
16.3155
15.6804
15.5115
15.6118
16.175
16.0197
15.8915
17.3944
17.3601
16.9746
16.6787
16.675
16.849
17.0259
16.8353
17.019
17.2701
16.6068
16.175
15.675
16.5469
16.8023
15.4751
15.1634
15.6619
15.5208
15.4108
15.1562
15.675
16.175
16.8431
16.8449
16.8455
16.8475
16.5912
15.5076
15.5028
15.1582
15.6888
15.142
15.675
16.175
15.0634
15.2173
15.3133
17.8102
17.7954
17.6286
17.4827
17.4882
17.4823
17.0603
17.372
17.3652
17.3945
17.3703
17.3398
17.2514
17.3939
17.3682
17.4286
17.4144
17.4176
17.3748
17.4111
17.3759
17.3529
17.3897
17.4867
17.4148
17.3987
17.3632
16.926
16.8083
16.7164
16.6145
16.7773
16.5083
17.0566
17.0477
17.0499
17.3031
17.3193
17.591
17.6695
17.7867
17.679
17.7824
17.5291
17.7984
17.7967
16.814
16.6797
16.9127
16.4241
16.1687
16.6459
16.7569
17.0368
15.9342
16.4515
16.2181
15.6893
16.7569
15.4994
15.6499
16.1075
15.9382
15.1475
15.6797
16.1703
16.6903
15.0588
15.1501
15.1437
15.5975
15.6013
16.7604
16.1703
16.2487
16.2525
16.1889
16.6886
16.1703
16.6047
15.3694
15.4134
15.22
15.4121
15.2326
15.762
17.6113
17.4226
17.674
17.787
15.7695
15.6564
15.4328
15.2981
17.0533
17.3416
17.3695
17.4066
17.3801
17.2532
17.3652
17.3706
17.4103
17.3345
17.3626
17.3933
17.3635
17.3926
17.4699
17.1556
17.5437
17.5719
17.3271
17.3095
17.7596
17.7758
17.0127
16.8341
16.9907
17.0054
17.3371
17.2364
16.84
17.0571
17.2906
17.252
17.3441
17.3688
17.415
17.4186
17.3774
17.3488
17.4168
17.4277
17.349
17.3776
17.5262
17.1668
17.5158
17.1505
17.5555
17.5716
17.7708
17.7677
17.5112
17.1251
17.7719
17.6684
17.6325
17.7942
17.6894
17.7947
17.4151
17.4595
17.5451
17.4581
17.7534
17.75
17.5011
17.4849
17.146
17.7572
17.4791
17.4881
17.6271
17.4798
17.7956
17.7949
17.7731
17.7822
17.1717
17.42
17.1057
17.6107
17.5402
17.487
17.311
17.0477
17.0477
17.568
17.5696
17.5917
17.7794
17.7712
17.3087
17.7726
17.776
17.789
17.6673
17.6284
17.7926
17.7806
17.7661
17.551
17.4819
17.4854
17.4824
16.3359
16.2101
16.0536
15.9188
15.8831
17.6218
17.3947
17.5369
17.3107
17.7748
17.6325
17.6851
17.7956
17.7186
17.8078
17.309
17.2067
17.2249
17.017
17.0262
17.4426
17.5334
17.5332
17.6624
17.7979
15.3286
17.1986
17.1433
16.9002
15.3513
15.7172
15.6215
16.4063
16.5654
15.4396
15.6849
16.0488
16.1847
16.3185
16.1124
16.3914
15.1788
15.675
15.1436
15.297
15.4251
15.3838
15.2738
16.175
15.7491
15.6338
16.6791
16.675
16.5532
16.5509
16.8023
16.8023
17.0144
16.8454
16.9975
16.9725
17.2081
17.4422
17.3554
17.0617
17.2653
17.2943
17.3847
17.3588
17.3841
17.4251
17.4302
17.3838
17.3557
17.4368
17.426
16.8302
16.6056
16.175
15.675
15.1532
16.3669
16.5702
16.7983
15.3458
14.7279
14.7328
14.7425
14.6222
14.7594
14.8645
15.1564
14.751
14.5495
14.7107
15.675
16.175
16.845
16.8452
16.8432
16.8428
16.5912
14.9989
15.0404
15.0148
14.8097
14.8408
15.1561
14.7216
14.544
14.885
14.8945
14.6652
15.675
16.175
15.0327
14.7842
15.0639
17.1891
17.3755
17.3989
17.3984
17.4008
17.3778
17.48
17.4797
17.4915
17.6453
16.8224
16.8256
16.9246
16.9947
16.6044
16.7994
16.6277
16.6051
16.6491
16.5659
16.3817
16.3129
17.0549
17.191
17.0447
17.064
17.3122
17.2938
17.6729
17.7979
17.792
17.7832
17.8094
17.4965
16.8148
16.9045
16.6796
16.5018
16.5722
16.9082
16.9307
16.6204
17.1758
17.2066
15.9292
16.209
16.2507
15.6876
16.4464
16.7569
17.1169
15.4482
16.1028
15.9327
15.4587
15.3519
15.7716
15.6347
14.7453
14.8642
14.8882
14.6847
14.6394
15.6797
16.69
15.0713
14.7317
15.0851
14.692
14.7484
14.7225
14.5481
15.1303
14.7254
14.667
15.1512
14.9355
14.701
14.9987
15.0918
15.1401
15.6797
15.6013
15.5975
15.1814
15.6787
15.1621
15.6797
17.0258
16.7628
16.7586
16.1703
16.2911
16.6985
16.68
16.1743
16.1657
16.6898
16.6886
16.1703
16.1703
15.8727
16.2298
16.1824
16.675
16.1871
16.6043
15.0596
15.0817
15.0968
17.6639
17.7936
17.6137
15.4753
15.4629
15.324
15.1243
17.3997
17.3764
17.552
17.7638
17.5728
17.1644
17.4641
17.5141
17.5942
17.7832
17.6193
17.4504
17.3696
17.0518
16.8399
16.9943
17.0185
16.9633
17.225
17.3422
17.0414
17.2628
17.6424
17.516
17.3741
17.4244
17.4193
17.3792
17.3475
17.3712
17.4186
17.2098
17.378
17.4035
17.3756
17.4043
17.2395
17.3727
17.4005
17.3754
17.3995
17.4851
17.4855
17.497
17.7082
17.6325
17.1775
17.1609
17.5188
17.5711
17.356
17.4961
17.7663
17.5891
17.7674
17.1507
17.7795
17.6378
17.7818
17.7614
17.1459
17.7337
17.8096
17.803
17.6956
17.7962
17.4862
17.4869
17.4882
17.6302
17.4051
17.3771
17.4747
17.4204
17.4829
17.4067
17.4756
17.6263
17.5019
17.7144
17.7676
17.1696
17.74
17.4196
17.4843
17.1352
17.7529
17.1561
17.133
17.4956
17.5621
17.5891
17.545
17.3178
17.7603
17.042
17.0477
17.776
17.5343
17.7644
17.5875
17.7702
17.7924
17.6772
17.6444
17.3064
17.4606
17.0557
17.0529
17.53
17.767
17.7746
17.5738
17.5698
17.6733
17.7746
17.29
17.7993
17.6411
17.8002
17.4868
17.487
17.4878
16.0994
15.9684
16.1338
15.7936
15.6536
15.6821
15.4298
17.6215
17.3866
17.7059
17.4761
17.261
17.7994
17.6715
17.8084
17.7966
17.3185
17.4105
17.3779
17.31
17.3661
17.2908
17.3153
17.3737
17.3893
17.3331
17.5887
17.2646
17.3405
17.283
17.1246
17.3177
17.2698
17.3388
17.2824
17.1283
17.3629
17.2857
17.3491
17.2859
17.3472
17.2795
17.3319
17.1336
16.9308
16.9189
16.9169
17.3944
17.4454
17.429
17.4001
17.6327
17.6274
17.7092
17.813
17.7929
17.1339
16.9132
15.4532
15.3382
16.3484
16.3004
16.4771
16.4328
16.4708
16.4263
15.1448
14.9647
15.6854
16.268
16.0694
16.311
15.6776
16.3279
16.0596
16.179
16.0789
16.4261
16.447
16.4967
16.4558
16.4927
16.5164
16.3567
16.498
16.4553
16.4312
16.4708
16.5178
16.4452
16.4891
15.1756
14.7523
14.6892
15.675
15.0714
14.7927
15.1134
15.142
15.0209
14.9357
16.175
15.4956
15.3763
16.6796
16.675
16.8019
16.5541
16.5497
16.8023
16.3956
16.4274
16.5598
16.5511
16.805
16.8027
17.0435
16.9901
17.0554
16.849
16.9862
17.2513
17.3397
17.0505
17.3675
17.34
17.3783
17.4044
17.4972
17.3672
17.3411
17.4124
17.3743
17.408
17.4758
17.4072
17.6901
17.6238
17.4794
17.4748
17.4061
17.5037
17.636
17.3811
17.4043
17.4031
17.3734
17.4048
17.4047
16.8338
16.6092
16.175
15.675
15.1517
14.7326
14.7191
14.5894
16.657
16.5331
16.5412
16.4892
16.4961
16.9836
16.8148
16.8
14.5621
14.4448
14.446
14.4065
14.3965
14.4428
14.4389
14.3965
14.4297
14.3849
14.426
14.4724
14.4412
14.4363
14.4424
14.4358
14.568
14.4121
14.4112
14.5468
14.4302
14.5531
14.596
14.4001
14.4373
14.4307
14.5308
15.1821
14.7368
14.4465
14.4038
14.4319
14.4449
14.5523
14.3039
14.3019
14.3029
14.3033
14.4191
14.3964
14.4271
14.4157
14.5716
14.5797
15.675
16.175
16.8437
16.848
16.8457
16.8469
16.5888
14.7094
14.7061
14.7337
14.7309
14.5625
14.5614
15.1558
14.4432
14.4496
14.4362
14.4093
14.4422
14.3935
14.4007
14.2996
14.3808
14.3017
14.3032
14.299
14.7471
14.7627
14.7706
14.5596
14.585
14.3774
14.4211
14.3937
15.675
16.175
16.6912
16.6911
16.7091
16.7049
16.9183
16.9165
17.1201
16.5673
16.5473
16.4866
16.7075
16.7043
16.5474
16.5619
16.5474
16.5474
16.4831
16.5511
16.5517
16.5634
16.5484
16.484
16.548
16.492
16.5483
16.4828
16.5373
16.4721
16.5359
16.5162
16.4504
16.4669
16.3726
16.4377
16.4082
16.4371
16.3756
16.4324
16.1436
16.3119
16.0721
16.3112
16.4157
16.4371
17.2053
17.2648
17.2921
17.3159
17.2803
17.1262
17.3184
17.2814
17.2814
17.2801
17.34
17.3977
17.3756
17.373
17.1975
17.8036
17.7715
17.5987
16.7446
16.8909
16.7231
17.0316
16.5928
17.0944
16.8563
17.2929
17.1655
16.7999
16.4599
16.5482
16.6676
16.2635
16.5846
16.4689
16.3967
16.4241
16.7076
17.0432
16.9941
17.3217
17.4469
15.9195
15.6431
16.0933
16.0808
15.9127
15.7672
15.1447
15.4571
15.2978
14.4201
14.4385
14.4603
14.4433
14.7658
14.772
14.5729
14.4697
14.5909
14.4332
14.4061
14.3882
14.4375
14.4094
14.4024
14.6267
14.3877
14.4127
14.7398
14.7304
15.0645
14.5329
14.6215
14.4406
14.4033
14.4022
14.418
14.4304
14.7877
14.7172
14.425
14.4012
14.4248
14.4503
14.62
14.4146
14.4403
14.4147
14.3987
14.443
14.3019
14.3039
14.2986
14.3064
14.7223
14.5472
14.4391
14.4207
14.415
14.4254
14.4006
14.4297
14.3952
14.4287
15.0554
14.7371
14.8084
14.4029
14.4508
14.8376
14.6473
14.7447
14.7512
15.072
15.0785
14.7347
15.1455
15.1545
14.5334
15.6797
15.599
15.6725
15.1607
15.6769
15.1771
15.1804
15.1766
15.6797
15.6797
14.7829
14.8172
15.1669
15.4549
15.6893
15.1581
15.0713
14.9226
14.6543
15.6891
16.7324
17.0604
17.0002
17.4121
16.6273
16.9921
15.921
16.7131
16.8751
16.4226
16.6097
16.1749
16.1517
16.1703
16.6822
17.0607
17.1602
16.3964
17.017
16.6801
16.867
16.6096
15.9282
16.1736
16.1724
15.8334
16.1733
17.0087
16.6704
16.675
16.1872
16.1883
15.9534
15.6193
15.6187
16.0696
16.3816
16.0758
16.3266
16.1337
16.8021
16.5446
16.8031
16.5419
16.3243
16.0887
16.3384
16.8341
17.7943
17.7817
17.6885
15.1498
17.7565
17.2554
17.5289
17.0288
17.2097
17.0321
17.2719
17.5521
17.5005
17.7582
17.7759
17.7815
17.6059
17.6688
17.8011
17.592
17.6812
16.8364
17.0113
17.2552
17.2501
17.044
17.0595
17.2142
17.293
17.3761
17.3485
17.4044
17.3613
17.4138
17.3769
17.415
17.342
17.3383
17.4499
17.4078
17.4963
17.5303
17.3749
17.402
17.3674
17.4034
17.8019
17.7011
17.7099
17.8057
17.4939
17.4843
17.485
17.6296
17.2601
17.3452
17.3999
17.3714
17.3985
17.8175
17.7923
17.5064
17.5129
17.1791
17.563
17.5689
17.3147
17.7706
17.769
17.7851
17.6623
17.7979
17.6326
17.4869
17.7555
17.803
17.6971
17.117
17.8002
17.2528
17.4502
17.1308
17.561
17.4731
17.7374
17.4156
17.7504
17.7461
17.7297
17.1521
17.4514
17.5072
17.2299
17.7506
17.0219
17.0271
17.2057
17.4661
17.1387
17.5484
17.1656
17.0171
17.1511
17.0228
17.2266
17.4771
17.5267
17.7722
17.5507
17.7705
17.7512
17.749
17.7827
17.7955
17.7859
17.6555
17.3204
16.9067
17.0582
17.0507
17.7699
17.5664
17.7559
17.5154
17.8015
17.7959
17.1607
17.2847
17.3113
17.3954
17.3722
17.3382
17.3028
17.3115
17.3709
17.3644
16.9717
16.9654
17.3945
17.4263
17.3459
17.348
17.4393
17.4032
17.4396
17.7549
17.4269
17.3924
17.3455
17.3201
17.3454
17.4005
17.7692
17.507
17.5919
17.5874
17.7814
17.4155
17.4524
17.415
17.4069
17.4317
17.4047
17.4327
17.4355
17.4063
17.7509
17.5371
17.5242
17.181
17.2973
17.3741
17.2744
17.2793
17.2973
17.3694
17.3075
17.3617
17.1343
17.0321
17.1362
15.8402
15.7742
16.3318
16.1228
15.3729
15.5451
15.417
15.6912
15.1446
15.1124
17.2961
17.3599
17.4293
17.8011
17.6001
17.3552
17.3965
17.4398
17.4346
17.39
17.3867
17.4142
17.3528
17.3929
17.4683
17.5136
17.6896
17.2916
17.2914
17.4112
17.4072
17.4468
17.4376
17.4092
17.7756
17.4581
17.413
17.5252
17.5214
17.681
17.7779
17.4421
17.6887
17.7996
17.6587
17.8093
17.7997
15.1848
16.4459
16.4472
16.4158
16.476
16.4229
16.4485
16.4783
16.4228
16.4449
16.3473
16.3271
16.3336
16.4425
16.4134
16.4147
16.4354
16.4334
16.4088
15.181
14.7367
14.5843
14.7185
14.7734
14.8031
14.6283
14.5777
15.6786
16.0647
16.4367
16.4163
16.4254
16.4559
16.4695
16.4802
16.4368
16.4665
16.3606
16.3729
16.0085
16.398
16.3127
16.339
15.6557
16.0881
16.2953
15.6908
15.1559
16.1347
16.2386
16.174
16.3356
16.3344
16.1377
16.4683
16.4434
16.4504
16.3759
16.3506
16.4498
16.468
16.44
15.1527
14.7299
14.7554
14.4376
14.4725
14.418
14.4212
14.4057
14.4394
14.4067
15.675
14.833
14.8861
14.7687
14.657
14.6379
16.175
15.2321
15.1223
16.6752
16.675
16.8023
16.5533
16.8041
16.5533
16.6866
16.8029
16.4315
16.5486
16.576
16.8033
16.6683
16.5364
16.5516
16.5077
16.6382
16.5258
16.5559
16.5258
16.5236
16.5223
16.8135
16.8094
17.0535
16.9702
17.2189
17.0494
17.2566
17.3494
17.0337
16.8447
17.328
17.0197
17.3747
17.4135
17.4025
17.3469
17.3634
17.4272
17.3747
17.4158
17.6314
17.5336
17.4921
17.481
17.6989
17.6277
17.4864
17.4815
17.7976
17.4811
17.4906
17.4466
17.6988
17.631
17.4818
17.8025
16.3725
16.5596
16.1681
16.8367
16.8
15.675
15.1534
14.7489
14.7478
14.5472
14.751
14.3948
14.4084
14.4298
14.467
14.4364
14.3946
14.4327
14.4198
14.5479
14.4188
14.3988
14.3913
14.3737
16.5797
16.5567
16.5562
16.7106
17.1197
16.9143
14.3029
14.3022
14.4016
14.3037
14.2964
14.2953
14.2928
14.2899
14.2964
14.296
14.2939
14.2891
14.2962
14.2971
14.2936
14.2972
14.2913
14.2929
14.2964
14.2979
14.2931
14.3024
14.2976
14.3724
14.299
14.4013
14.2839
14.2982
14.2924
14.3016
14.2732
14.3017
14.3914
14.3002
14.2924
14.3981
14.3945
14.2936
14.2961
14.3785
14.2934
14.4679
14.4876
14.4003
14.385
14.3753
14.486
14.3932
14.2886
14.3898
14.2955
14.2955
14.364
14.2939
14.3871
15.164
14.4317
14.3994
14.3016
14.3009
14.2981
14.2964
14.2933
14.3023
14.2976
14.2931
14.3917
14.3616
14.2935
14.2914
14.2918
14.4963
14.4998
14.3981
14.3879
15.675
16.175
16.8478
16.8453
16.8084
16.8139
16.549
16.5504
14.4785
14.4739
14.3864
14.4003
14.5076
14.4007
14.3002
14.2943
14.2976
14.298
14.2948
14.3017
14.2932
14.2897
14.2963
14.2923
14.295
14.3004
14.4856
14.39
14.3766
14.5068
14.378
14.4035
14.2914
14.2926
14.2929
14.2917
15.675
16.4605
16.4325
16.4602
16.386
16.4584
16.1779
16.4116
16.3224
16.4421
16.1348
15.8903
15.8583
16.46
17.2831
17.2669
17.2832
17.2583
17.2814
17.1159
17.2825
16.9001
16.8178
17.0224
16.8549
16.8097
16.8392
16.671
16.6363
17.0508
16.9921
17.2273
17.2589
17.059
16.6858
17.2698
17.2006
16.9498
17.3657
17.4673
17.4356
16.7049
16.381
16.5888
16.4411
16.5303
16.5112
16.4896
16.4257
16.4424
16.5384
16.5082
16.4408
16.5127
16.5806
16.5659
16.5564
16.7064
16.5571
16.5741
16.7095
16.0399
16.3848
16.2285
15.8499
16.6838
16.6113
16.443
16.5089
16.5377
16.5149
16.4469
16.4295
16.4907
16.5421
16.3978
16.4389
16.5106
16.5149
16.4461
17.5471
17.6357
15.7575
15.458
15.3543
15.7507
15.1506
14.2959
14.2928
14.2938
14.2938
14.4878
14.4923
14.395
14.3903
14.3655
14.2962
14.2947
14.2934
14.2914
14.5298
14.4144
14.391
14.2975
14.2912
14.2937
14.292
14.2919
14.2924
14.5435
14.3905
14.4087
14.4246
14.4608
14.4055
14.4226
14.4405
14.5291
14.7373
14.4166
14.4368
14.3997
14.3024
14.3042
14.3022
14.3045
14.4481
14.3685
14.297
14.2949
14.2871
14.2944
14.3159
14.2904
14.2936
14.2685
14.288
14.3118
14.2889
14.2678
14.2767
14.2726
14.2968
14.3204
14.292
14.2731
14.3165
14.2962
14.2938
14.4701
14.7918
14.2937
14.4552
14.3934
14.318
14.2936
14.2717
14.2765
14.2997
14.2883
14.2724
14.2981
14.2759
14.2948
14.3182
14.2682
14.2895
14.2699
14.2915
14.2259
14.2503
14.2448
14.2906
14.1312
14.1636
14.2579
14.2497
14.2376
14.2579
14.2612
14.2967
14.3888
14.2955
14.2976
14.2938
14.2987
14.329
14.2751
14.3235
14.2927
14.2746
14.2915
14.2738
14.2736
14.2904
14.2904
14.4123
14.4102
14.3995
14.3891
14.5398
14.4369
14.4015
14.2994
14.2986
14.2984
14.298
14.2947
14.2961
14.2911
14.2965
14.2941
14.2932
14.2917
14.8447
14.6163
14.3517
14.2733
14.3015
14.325
14.2961
14.2729
14.3023
14.3564
14.2907
14.3096
14.2913
14.3071
14.3166
14.5595
14.4057
14.3734
14.5156
14.4927
14.3938
14.5136
14.6613
14.7912
14.6631
15.0803
14.5122
14.6606
14.3963
14.3961
14.7403
14.6392
15.157
14.4897
14.5089
14.3676
14.3339
14.2847
14.3123
14.3051
14.3268
14.3096
14.2844
14.3047
14.3298
14.3016
14.3006
15.6685
15.1345
15.4582
15.6641
15.1634
15.1517
15.6797
15.6623
15.3811
15.1725
14.8903
14.6747
15.4535
15.6772
15.6824
15.1658
15.1811
14.9753
14.6795
15.1651
14.7766
15.1629
15.6884
15.6894
14.4283
14.6786
14.6821
14.6777
15.1551
15.2954
15.679
15.4642
15.168
15.0341
14.8755
15.1446
14.8761
14.8619
14.7275
14.1497
14.1702
14.4927
14.4568
14.295
15.6881
17.3608
17.4735
17.7356
16.6655
17.0226
16.679
17.1174
16.1952
15.8587
16.2098
15.7658
16.6434
16.6565
17.3922
17.0219
16.387
16.8786
16.3185
16.0381
16.4801
16.1888
16.6749
16.1745
16.1816
16.6869
17.1557
17.054
17.4588
16.063
16.1775
16.373
16.5572
16.4225
16.6737
16.3165
16.6436
16.3196
16.1297
16.503
17.0583
16.915
17.1624
17.0476
16.7866
17.2868
16.6675
16.7397
17.0742
16.9852
16.7462
16.9263
15.7853
15.6589
15.9592
15.921
15.7172
15.9208
16.1623
15.8422
16.1883
16.9462
16.8059
17.0181
17.2384
16.6982
16.5268
16.5437
16.8019
16.7966
16.5459
16.8001
16.5457
16.327
16.3435
16.0694
16.3547
16.1009
16.3263
15.7213
15.4451
15.4165
15.2667
15.5296
16.3811
16.1976
16.0948
16.3269
16.3941
16.4211
16.4006
16.3081
16.348
16.3946
16.4174
16.422
16.3155
15.9812
16.075
16.4155
16.3752
15.8229
16.1208
16.9024
16.6826
16.9213
16.6884
16.8065
16.8059
16.4264
16.5865
16.5688
16.8053
16.4051
15.6775
16.0725
16.3478
16.2356
16.3524
17.796
17.523
17.0576
17.1365
17.0194
17.133
17.2771
17.2928
17.3296
17.3778
17.3591
17.2928
17.2755
17.3306
17.3596
17.3809
17.1325
17.2817
17.276
17.3318
17.3453
17.2811
17.3431
16.9205
16.9239
17.1312
17.2919
17.3824
17.3525
17.2919
17.3673
17.2925
17.389
17.3677
17.5865
17.1374
17.3267
17.348
17.2925
17.281
17.7595
17.7773
17.6296
17.6482
17.4212
17.3888
17.3886
17.4127
17.4721
17.7978
17.6713
17.7907
17.8019
17.7796
17.2522
17.2785
17.3488
17.3779
17.3754
17.4148
17.427
17.4155
17.3731
17.347
17.4116
17.3867
17.3905
17.3556
17.3771
17.41
17.2417
17.4315
17.4195
17.3736
17.3429
17.4173
17.3715
17.3492
17.2073
17.3705
17.3814
17.4056
17.376
17.4042
17.4804
17.4839
17.4817
17.4904
17.6854
17.6254
17.6297
17.4848
17.4859
17.3996
17.7969
17.7953
17.3729
17.3997
17.7618
17.4671
17.6175
17.7604
17.7778
17.5175
17.7554
17.1503
17.5734
17.4987
17.5757
17.3401
17.7937
17.7793
17.6324
17.4411
17.4079
17.3854
17.3534
17.4966
17.5387
17.802
17.804
17.7102
17.4802
17.6299
17.4887
17.4359
17.4792
17.7958
17.0236
17.0218
17.193
17.3589
17.359
17.2886
17.2886
17.3645
17.3578
17.2886
17.3147
17.2726
17.3119
17.3735
17.36
17.2885
17.2647
17.1267
17.0281
17.0274
17.1931
17.1887
17.1309
17.1317
17.1337
17.1425
17.0149
17.3989
17.5525
17.7405
17.5901
17.4251
17.33
17.3973
17.4299
17.402
17.4006
17.3995
17.4139
17.4333
17.7635
17.5412
17.4055
17.4397
17.5793
17.5295
17.7496
17.3862
17.3328
17.3178
17.3724
17.3838
17.3314
17.2686
17.7385
17.7279
17.4725
17.1076
17.4193
17.3898
17.3437
17.4221
17.385
17.3292
17.4988
17.3885
17.3422
17.4126
17.0356
17.0432
17.2829
17.277
17.1342
17.2826
17.1223
17.7507
17.5393
17.4445
17.1354
17.4428
17.0109
17.7718
17.5668
16.9858
17.2663
16.917
17.0036
17.2148
17.1029
16.9025
17.2634
17.0281
17.7617
17.5657
17.2961
17.3628
17.4151
17.3778
17.3037
17.74
17.4425
17.735
17.5
17.7949
17.8104
17.691
17.316
17.3686
17.3158
17.3727
17.3417
17.3951
17.2928
16.7033
16.8112
16.9738
17.4038
17.4005
17.4006
17.4034
17.4274
17.75
17.3945
17.4212
17.3498
17.5217
17.4259
17.3958
17.3502
17.2758
17.2758
16.913
16.8124
16.9161
17.3714
17.4152
17.3803
17.6322
17.7885
17.4033
17.3712
17.3786
17.7738
17.4003
17.3999
17.4768
17.393
17.3807
17.4103
17.3817
17.3953
17.5196
17.4
17.6518
17.4682
17.6511
17.3761
17.401
17.3756
17.5716
17.7539
17.5421
17.3938
17.4526
17.3723
17.3721
17.3721
17.3724
17.3971
17.3915
17.3903
17.1199
17.2801
17.2801
17.265
16.9158
15.49
15.5912
16.4456
16.4629
16.4621
16.437
16.3271
16.3083
16.0547
15.183
14.9333
15.1743
15.2784
16.0723
15.7079
15.386
15.7398
14.936
14.8287
17.6022
17.7906
17.43
17.3751
17.3696
17.3677
17.3938
17.3733
17.3973
17.3906
17.497
17.3918
17.4134
17.5107
17.3751
17.3745
17.4039
17.3765
17.7993
17.3754
17.3927
17.5162
17.4631
17.7985
17.6753
17.6622
17.7876
17.6799
17.8079
16.4651
16.4431
16.467
16.443
16.4637
16.3725
16.4491
16.4433
16.4621
16.4645
16.4455
16.4656
16.4413
15.1807
14.6503
14.3835
14.4255
14.4515
14.3756
14.3743
14.3869
14.421
14.4271
14.5262
14.5035
14.4178
14.3893
14.4024
14.3937
14.3643
15.6717
15.6765
16.0751
16.1332
16.324
16.3317
16.4541
16.4687
16.4469
16.4316
16.4685
16.4551
16.4504
16.489
16.4971
16.4524
16.4931
16.4969
16.5181
16.6064
16.4242
16.452
16.493
16.4948
16.4472
16.0197
16.2315
16.2974
15.6544
16.0264
15.1566
16.3144
16.4553
16.4377
16.4193
16.4004
16.4584
16.4406
16.4695
16.4747
16.464
16.4126
16.436
16.3325
16.4114
16.4616
16.4344
15.6749
15.175
16.3399
16.3509
16.3688
16.3434
16.4434
16.4448
16.3212
16.1765
16.3719
16.451
16.4494
16.45
16.3335
16.3411
16.1754
16.4477
16.4441
15.193
14.7521
14.7469
14.4362
14.4292
14.4047
14.473
14.4203
14.6669
14.3719
14.2948
14.2957
14.2949
14.297
14.2951
14.2933
14.2924
14.2958
14.2954
14.2934
14.2896
15.675
14.5866
14.6438
14.558
14.4182
14.2282
14.6638
14.1709
14.2038
14.3539
16.1698
14.9809
14.8466
16.6875
16.4142
16.802
16.5461
16.675
16.6549
16.4449
16.498
16.6383
16.6457
16.7963
16.5066
16.5102
16.451
16.5063
16.5169
16.5469
16.5232
16.5762
16.5591
16.7089
16.559
16.5535
16.706
16.5523
16.5636
17.0478
17.2569
17.2709
17.355
17.342
17.3699
17.4066
17.3933
17.3428
17.3705
17.4062
17.3578
17.3946
17.3731
17.4001
17.3731
17.3885
17.4012
17.3895
17.4442
17.4332
17.4338
17.0589
16.9764
17.2311
17.3864
17.4435
17.4552
17.4004
17.4599
17.3874
17.3584
17.4441
17.5151
17.6256
17.3158
17.7933
17.4848
17.4895
17.4857
17.6312
17.4793
17.5014
17.4809
17.6303
17.798
17.7968
16.4356
16.6439
16.2018
16.3161
16.0648
15.8754
16.3465
16.0576
16.1567
16.6177
16.7018
15.6747
16.867
17.1151
17.0038
15.1767
14.7955
14.7605
14.6787
14.6414
14.4038
14.4571
14.4154
14.4405
14.4556
14.6099
14.4584
14.5048
14.4246
14.4083
14.3027
14.3017
14.2975
14.296
14.4402
14.2953
14.2908
14.2957
14.2857
14.2908
14.2957
14.2949
14.2972
14.2944
14.2973
14.2966
14.2932
14.2981
14.3015
14.2954
14.2961
14.296
14.2967
14.2931
14.2907
14.2928
14.2866
14.2955
14.2911
14.3004
14.2995
14.3097
14.3063
14.2957
14.2838
14.2933
15.1908
14.3107
14.2866
14.3108
14.3037
15.675
16.305
16.3075
16.0463
16.0499
16.6908
16.9178
16.4246
16.523
16.5255
14.3075
14.31
14.3122
14.3032
14.2917
14.3106
14.2916
16.204
16.419
16.3415
16.107
15.9221
15.6145
16.9157
16.7028
16.9205
16.8276
16.7131
16.9268
16.8388
16.7095
16.5585
16.5726
16.5755
16.5582
16.5533
16.5536
17.1321
17.0466
16.921
17.3442
17.3256
17.2769
17.2866
17.24
17.3457
17.2864
17.357
17.4542
17.4261
17.1591
17.3849
17.6223
17.604
17.4129
17.3829
17.4889
17.38
17.3995
17.4031
17.4747
16.4863
16.4506
16.4348
16.4737
16.4909
16.5077
16.4892
16.4499
16.4226
16.448
16.4905
16.4464
16.5462
16.5536
16.5464
16.5447
16.5497
16.5037
16.5447
16.6994
15.8697
16.0778
16.2892
16.4917
16.4368
16.5334
16.4911
16.3983
16.4374
16.423
16.3968
16.3901
16.3436
16.1603
16.33
16.3953
16.4222
15.6537
15.6891
16.7006
16.5497
16.5503
17.7877
14.3138
14.312
14.2905
14.2876
14.3162
14.2938
14.272
14.3356
14.3389
14.3375
14.284
14.309
14.2704
14.2936
14.2864
14.2747
14.2896
14.2724
14.2857
14.2951
14.3252
14.2741
14.3037
14.2952
14.2742
14.2957
14.2765
14.3188
14.2975
14.2758
14.3015
14.3133
14.3187
14.2961
14.2933
14.2999
14.4322
14.5041
14.312
14.2858
14.2971
14.3103
14.3187
14.2795
14.3385
14.3237
14.2985
14.2814
14.3057
14.3001
14.32
14.2881
14.2807
14.3109
14.4438
14.2727
14.289
14.2705
14.2865
14.2772
14.2963
14.3081
14.3217
14.2819
14.2774
14.2829
14.1152
14.2648
14.2922
14.2599
14.2687
14.1472
14.2666
14.2529
14.2911
14.2587
14.2682
14.2684
14.115
14.6863
14.0224
14.2247
14.212
14.0808
14.2512
14.2065
14.2251
14.1384
14.0223
14.1317
14.3561
14.2468
14.2595
14.1305
14.2481
14.248
14.2268
14.2452
13.9177
14.0153
14.0211
14.0312
14.1876
14.2091
14.1948
14.2095
14.1889
14.1648
14.0465
13.9747
14.0506
14.1878
14.1848
13.8986
13.9672
14.0466
14.1952
14.1955
14.1802
14.272
14.2961
14.2866
14.3123
14.2744
14.309
14.2891
14.3257
14.2916
14.2978
14.2724
14.2878
14.3072
14.2721
14.2867
14.3613
14.2819
14.3164
14.2992
14.3108
14.2832
14.3005
14.3297
14.3005
14.2929
14.5856
14.0627
14.2164
14.2369
14.107
14.1303
14.2371
14.2161
14.2555
14.1929
14.2487
14.2588
14.3075
14.1511
14.2432
14.2257
14.2464
14.2435
14.3314
14.1859
14.2524
14.2642
14.2869
14.2909
14.1449
14.2699
14.2508
14.2338
14.2314
14.2492
14.2516
14.1713
14.1624
14.3007
14.2167
14.1508
14.2474
14.2839
14.2527
14.2515
14.2374
14.175
14.5306
14.6633
14.6689
14.175
14.2957
14.175
14.2546
14.2748
14.2914
14.1458
14.2534
14.2357
14.2671
14.2334
14.1474
14.1644
14.2639
14.25
14.2636
14.4186
14.3211
14.765
14.1623
14.6725
14.2841
14.1571
14.2488
14.2295
14.2457
14.2305
14.2465
14.2482
14.2629
14.1573
14.8807
15.2825
15.424
15.6706
15.185
14.9386
14.668
15.167
15.6843
15.3955
15.6607
14.972
15.1556
14.6785
14.4334
14.448
14.1748
15.5302
15.4921
15.1875
15.4092
15.3054
15.2415
15.4939
15.658
15.1289
15.2118
14.8941
14.8228
15.1491
14.8963
14.6788
14.4837
14.6936
15.0392
14.9776
15.0683
15.0057
14.9468
14.1734
15.1559
14.4331
14.6757
15.1594
15.6817
14.1294
14.3556
14.3461
14.6783
14.6792
14.6537
14.6959
14.2994
14.7342
14.7558
15.1786
15.1286
15.003
16.0481
15.6902
15.4574
15.4673
15.2395
15.1766
14.9279
15.1461
14.8316
14.8564
14.6116
14.6051
13.9629
13.9417
13.6681
14.1836
13.937
13.6828
14.2109
13.9458
13.9396
14.3478
14.3442
14.4095
15.694
17.7331
16.5439
16.675
16.6284
17.003
16.6763
17.1287
16.2138
15.8539
15.7765
15.6579
15.7293
15.3481
15.955
17.3487
17.7205
17.7356
17.4055
17.1014
17.4443
17.0354
16.712
16.628
16.1943