/*--------------------------------*- C++ -*----------------------------------*\
| =========                 |                                                 |
| \\      /  F ield         | OpenFOAM: The Open Source CFD Toolbox           |
|  \\    /   O peration     | Version:  3.0.1                                 |
|   \\  /    A nd           | Web:      www.OpenFOAM.org                      |
|    \\/     M anipulation  |                                                 |
\*---------------------------------------------------------------------------*/
FoamFile
{
    version     2.0;
    format      ascii;
    class       volScalarField;
    location    "10";
    object      ccz;
}
// * * * * * * * * * * * * * * * * * * * * * * * * * * * * * * * * * * * * * //

dimensions      [0 1 0 0 0 0 0];

internalField   nonuniform List<scalar> 
303637
(
0.0470995
0.0729037
0.0517116
0.076581
0.148
0.034515
0.0973815
0.152662
0.222735
0.0712328
0.0243938
0.221916
0.158547
0.0592772
0.0518814
0.0721793
0.210848
0.211391
0.33839
0.209049
0.216546
0.0497367
0.0613575
0.0706921
0.151242
0.176981
0.234643
0.284084
0.285022
0.232108
0.218654
0.340465
0.405349
0.36442
0.36491
0.406587
0.503167
0.430584
0.0932684
0.171499
0.0558857
0.290525
0.290238
0.235111
0.456391
0.343776
0.230389
0.174949
0.186642
0.198761
0.0660915
0.063523
0.0285361
0.0601563
0.0904807
0.344975
0.305115
0.0723554
0.568618
0.390791
0.460816
0.467302
0.599157
0.496524
0.261781
0.36895
0.0396358
0.024219
0.0607641
0.157385
0.0535972
0.169597
0.302105
0.149563
0.133017
0.229312
0.233069
0.288829
0.0698988
0.340567
0.212344
0.574646
0.356359
0.503735
0.306815
0.438016
0.563122
0.562449
0.458923
0.388676
0.452206
0.829639
0.774042
0.645682
0.675959
0.598164
0.604244
0.651879
0.516132
0.522012
0.757648
0.592958
0.0917349
0.318277
0.390444
0.68401
0.517986
0.454124
0.522722
0.277183
0.455925
0.39901
0.488286
0.173244
0.0551847
0.0533338
0.345537
0.277664
0.228824
0.149881
0.242035
0.252622
0.209184
0.0646934
0.07782
0.0607089
0.0668421
0.072201
0.323492
0.654146
0.787411
0.788698
0.435111
0.470381
0.209766
0.20806
0.47804
0.194121
0.0630897
0.779774
0.658691
0.596139
0.618198
0.681022
0.705209
0.513047
0.849387
0.81682
0.849418
0.623041
0.696015
0.707588
0.0707321
0.596513
0.0599543
0.0521472
0.0604831
0.190475
0.0545297
0.433339
0.219854
0.436527
0.222199
0.0419326
0.189265
0.0798884
0.78446
0.819282
0.483712
0.100648
0.328423
0.287026
0.255179
0.891504
1.00931
0.754578
0.273675
0.533811
0.738379
0.667959
0.656483
0.652031
0.143627
0.437138
0.310224
0.515844
0.847788
0.702032
0.61534
0.672207
1.2829
1.05385
0.770834
1.21206
1.13743
1.0165
1.00849
0.969624
0.889451
0.92033
0.826174
0.878543
0.837952
0.903453
0.743441
0.737989
1.04081
0.839646
0.892402
0.757697
0.925834
0.0704553
0.318812
0.913894
0.74297
0.753514
0.399555
0.642428
0.592811
0.691345
0.765624
0.509971
0.453624
0.551398
0.892883
0.513262
0.169418
0.0240142
0.0433311
0.0552696
0.522577
0.443805
0.229491
0.312233
0.289837
0.233083
0.165668
0.450824
0.389784
0.362837
0.052714
0.135593
0.200391
0.250491
0.443977
0.161985
0.216832
0.464103
0.0510463
0.172036
0.0656061
0.0789543
0.0554146
0.0667908
0.0572
0.0593186
0.192674
0.445582
0.949313
1.05602
0.904632
1.02241
1.29294
0.813329
0.794243
0.808413
1.29012
0.297292
0.487946
0.205471
0.280891
0.273503
0.808405
0.520919
0.0552545
0.0676781
1.00182
0.894726
0.902079
0.842642
0.840958
0.759639
0.956536
0.896849
0.958495
0.840342
0.759222
1.04417
1.21026
1.08268
1.07996
1.03579
1.03705
1.09749
1.0511
0.93959
0.924084
0.853095
0.523978
0.813431
0.0555478
0.0395687
0.070294
0.207003
0.203851
0.0668465
0.805661
0.4798
0.483387
0.785035
1.29341
1.21631
1.29149
0.47756
0.286183
0.0653862
0.0641537
0.195177
0.357318
0.208574
0.198058
0.29274
0.0692279
0.206549
1.13047
1.33226
1.26014
0.789316
1.04064
0.763691
0.477705
0.400103
0.624402
0.85812
0.879892
0.0553851
0.998375
1.06594
1.62506
1.81689
1.6026
1.30185
1.30001
1.38521
1.54385
1.24907
1.06777
1.29542
0.861161
1.43574
1.43859
1.23836
1.20806
1.31371
1.11663
1.11197
1.06162
1.06888
1.12833
0.978839
0.969281
1.15034
1.06655
1.12199
0.983843
1.10324
1.27664
1.13276
1.13475
0.968835
0.97671
0.670827
0.613096
0.83969
0.901943
0.986796
0.755652
0.892326
0.669913
0.739748
0.62009
0.932421
0.85689
0.513655
1.26336
1.17646
1.35094
0.601959
0.396691
0.0546788
0.0495943
0.659467
0.663188
0.441964
0.455231
0.224375
0.23343
0.0532629
0.235688
0.486766
0.0548277
0.056315
0.151973
0.292795
0.208971
0.184838
0.239053
0.205935
0.0483467
0.6131
0.354245
0.478846
0.0456766
0.0649568
0.255613
0.161376
0.0776629
0.0797062
0.0567638
0.0815564
0.051959
0.0666485
0.186965
0.511769
0.462726
0.811263
0.278641
1.13564
1.31675
1.28862
1.13291
1.20789
1.31232
1.29385
1.61963
1.7953
1.45556
1.29
0.841477
0.80202
0.326176
0.807914
1.29
1.4469
1.4482
1.79
0.28784
0.212731
0.296628
0.473763
0.0641
0.199866
0.813829
1.29
0.491421
0.0653734
1.06891
1.12577
1.13557
0.967783
1.19805
1.11484
1.20314
1.25642
1.14808
1.0677
1.13419
1.4933
1.45372
1.32307
1.28738
1.37119
1.27899
1.38944
1.33131
1.57192
1.20547
1.19663
1.26766
1.07661
1.14375
1.16128
0.662699
0.355757
0.619047
0.276997
0.849341
0.904451
0.0799208
0.0668026
0.252633
0.271439
0.0632492
0.800639
0.507642
0.484502
0.727
0.289031
1.29466
0.273655
0.45064
0.276707
0.782268
1.29466
1.79548
1.21631
2.04
1.21631
1.45423
1.79714
0.384828
0.333889
0.0611101
0.172995
0.0768031
0.064107
0.354978
0.545856
0.0542341
0.194351
0.066069
0.215812
0.0727858
1.49785
1.5772
1.50113
1.39663
1.34068
1.28998
1.29377
1.35599
1.40748
1.20814
1.21137
0.764918
1.02141
0.742834
1.04121
0.779845
0.50506
1.91446
1.65298
2.08926
1.78785
1.86287
2.29424
1.96644
1.79255
2.18762
1.78571
2.10536
1.91047
1.57249
1.58517
1.59104
1.62712
1.28819
1.29028
1.31187
1.68634
1.57527
1.64613
1.4245
1.56351
1.3404
1.58061
1.52643
1.57872
1.51738
1.44664
1.35265
1.41768
1.29425
1.19427
1.32786
1.36475
1.20149
1.19293
1.08555
1.10436
0.88264
0.8841
0.773769
1.05515
1.13355
0.868863
0.768409
1.04961
1.77703
1.28016
1.24089
1.52921
1.49603
1.48863
1.31553
1.3428
1.407
1.72623
1.50434
1.3664
1.41409
0.503551
0.0442409
0.0530631
0.0799267
0.286248
0.0707403
0.304448
0.052487
0.20233
0.196772
0.047249
0.773297
0.615285
0.506329
0.354231
0.255806
0.430866
0.664344
0.382683
0.0591753
0.142477
0.0710661
0.0779699
0.0581378
0.073614
0.0670937
0.0547352
0.1999
0.630752
0.486722
0.822324
0.589703
0.818762
0.476577
0.284086
1.29
0.0641842
0.204258
1.29282
1.35317
1.51812
1.79399
1.29
1.91016
2.07866
1.65289
1.7872
1.90619
2.28892
1.79
1.29
0.917569
0.917332
0.311223
0.781213
0.0673266
0.200206
0.313656
0.787594
1.29
1.79
1.66398
1.66395
1.91786
1.91767
2.29
0.20598
0.190979
0.311089
0.0589945
0.760981
1.29
1.79
0.347498
0.273989
0.0779058
1.29879
1.33049
1.34724
1.197
1.36625
1.29711
1.67215
1.59243
1.59064
1.52342
1.52751
1.58926
1.72326
1.42337
1.4469
1.59396
1.64724
1.53507
1.64976
1.72767
1.73018
1.78254
1.78095
1.7109
1.45437
1.30122
1.36961
0.437343
0.673945
0.466336
0.0863389
0.22223
0.324819
0.682049
0.917332
0.203054
0.90989
1.14111
0.90247
0.156793
0.0642748
0.231696
0.0467172
0.0610183
0.163655
0.34901
0.0745331
0.809018
0.464982
0.475463
0.725548
0.284947
1.29466
0.259612
0.475059
0.0971314
0.276973
0.730835
1.78534
0.500435
0.278432
0.0616402
0.192202
0.744534
1.29466
1.78534
2.29233
1.29639
1.28738
0.757186
2.04
1.21631
2.29738
2.29466
2.86369
2.04
0.762831
1.29109
1.29466
2.2926
0.0770483
0.0715126
0.280609
0.0779851
0.314302
0.0565656
0.484903
0.281763
0.332646
0.536001
0.061237
0.276634
0.0699223
0.2789
1.69364
1.77417
1.73044
1.72361
1.76722
1.72766
1.53611
1.65077
1.64315
1.59929
1.45512
1.5307
1.59992
1.43076
1.10028
0.82288
0.655811
0.967708
0.504134
0.300408
1.01564
0.714673
2.04693
2.15085
2.53627
2.30091
2.43993
2.23045
2.40028
1.91923
1.92495
2.11351
2.05971
2.06044
2.01669
1.96668
1.96221
2.01051
1.88346
1.82588
1.82901
1.87936
1.9465
2.78314
2.46717
2.26747
2.62547
2.11531
1.88332
2.17537
1.95928
1.79106
2.42939
2.06429
2.37225
2.22063
1.8896
1.83414
2.10697
2.064
2.18446
2.36272
1.58044
1.80798
2.05229
1.52141
1.28722
1.26088
1.74593
1.81413
1.79146
1.64599
1.55598
1.78406
1.36903
1.06875
2.30296
2.03309
1.78639
1.85188
1.81336
2.05621
1.41329
1.16267
1.41733
1.00187
1.29113
1.52627
1.3792
1.08376
1.65619
1.6897
1.63818
1.57126
1.65023
1.56443
1.5568
1.89396
1.88067
1.91343
1.52577
1.59128
1.42602
0.0837807
0.318524
0.0677636
0.191393
0.465883
0.042861
0.0499973
0.167605
0.198382
0.780963
0.57988
0.345256
0.498682
0.150786
0.251249
0.681937
0.538438
0.317235
0.331075
0.499901
0.470226
0.755328
0.188863
0.350633
0.0567014
0.075758
0.0638679
0.0462039
0.0564057
0.0585612
0.0636078
0.282986
0.800503
0.662729
0.510775
0.816813
1.0886
1.29451
0.916283
0.729161
0.551234
0.79795
1.29
0.347361
0.279623
0.074107
0.0712661
0.278752
1.79
0.0560139
0.193077
2.29055
1.79
1.41766
1.16087
1.16267
1.41733
2.05988
2.18282
2.53152
2.29988
2.2994
2.17063
2.43302
1.92061
2.11346
1.92817
2.05431
2.01714
1.97094
1.96809
2.02245
1.88844
1.83774
1.83372
1.88531
2.43325
2.78677
2.29
1.79
1.29276
1.03547
0.925593
0.91767
0.078605
1.04648
1.0645
0.561242
0.746522
0.655151
0.46331
1.29219
1.0449
0.823996
0.574268
1.79
2.29
2.16149
2.16467
2.41551
2.41823
2.79
0.0731746
0.0774383
0.0560783
0.233901
0.206077
1.28902
1.02489
0.810449
0.267252
0.332456
0.560943
1.79
2.29
0.0758759
0.231194
0.0784179
1.83794
1.81678
1.65661
1.6577
1.75652
1.82211
1.64947
1.74933
1.81343
1.79576
0.230123
0.488601
0.83392
0.676461
0.789939
0.713814
0.543211
0.33996
0.0611264
0.15691
0.072204
0.246455
0.918264
0.786163
0.867828
0.152699
0.916489
1.16123
0.189076
0.288504
0.0391678
0.0638926
0.19193
0.0600871
0.0588821
0.484737
0.843779
0.516241
0.335293
0.216947
0.180658
0.205117
0.218022
0.436463
0.439984
0.272515
0.192494
0.726912
0.0634664
1.78534
0.065836
0.490593
0.053867
0.157304
0.0654648
0.197851
0.05296
0.195364
1.03885
0.354912
0.307707
0.627874
0.616494
1.78534
2.78699
1.79027
1.60042
1.28849
1.37355
1.54109
1.01587
1.29744
1.77792
1.5438
1.38014
0.780714
0.289373
0.667154
0.371627
2.28268
2.28043
2.29466
2.86369
2.04
1.29064
0.794197
0.77047
1.29466
2.60308
2.79044
2.29265
2.78534
2.97743
3.30656
3.29282
3.30697
3.3756
2.28968
1.78891
1.78534
2.29466
0.447374
0.321795
0.788722
1.29
1.29394
2.7867
0.0672355
0.0820033
0.079871
0.356824
0.469139
0.176391
0.4821
0.0618685
0.266945
0.0767683
1.75752
1.82151
1.4913
0.850977
1.0238
0.803616
1.04056
0.60367
0.704531
0.525251
0.406092
0.239651
0.0669863
2.17702
2.67699
2.97974
2.77549
2.53825
2.54424
2.76637
2.41734
2.34636
2.61915
2.56647
2.20241
2.26525
2.21299
2.28958
2.25166
2.12042
2.13163
2.06505
2.04341
1.97952
2.03601
1.87977
2.33401
2.25048
2.20192
2.25901
2.10157
1.97801
1.87809
2.04786
2.12659
2.02126
2.78384
3.29203
2.96369
3.01221
3.12637
2.44191
2.45424
2.75259
2.69481
2.25848
2.87055
2.87185
2.68125
2.17221
1.77296
2.24203
2.07501
2.43504
2.38248
2.01055
2.26624
2.20541
2.10612
2.24848
2.41729
2.4602
2.42456
2.49489
2.48361
2.3353
2.32457
2.46278
1.92851
2.26323
1.6299
2.23428
2.53109
2.59728
1.4565
1.27266
1.23645
2.78403
2.28371
2.59473
2.68219
2.29972
2.20553
1.95581
2.06369
1.91741
1.66267
2.15108
1.70992
2.08461
1.93869
1.71951
2.16753
2.11203
2.29398
1.40631
1.52207
1.16457
1.40939
1.15641
1.05497
0.757608
0.826504
1.50314
1.52212
1.35645
1.66279
1.76802
2.01274
1.99775
2.03531
1.97183
1.87188
0.0730041
0.310987
0.49564
0.0625698
0.277994
0.778668
0.459066
0.0439405
0.0491074
0.154679
0.201708
0.128348
0.478712
0.567268
0.243274
0.0554487
0.736487
0.742226
0.70671
0.790032
0.794331
0.627122
0.66715
0.637417
0.581572
0.575491
0.590042
0.615754
0.533263
0.543618
0.597531
0.417164
0.405436
0.461888
0.457198
0.400392
0.363361
0.341712
0.320383
0.254648
0.250085
0.205179
0.20664
0.208218
0.207529
0.393337
0.589961
0.537803
0.425743
0.365155
0.469065
0.33814
0.0498998
0.186517
0.214688
0.432158
0.0481697
0.0568111
0.0615941
0.184548
0.992876
0.73852
0.757501
0.748815
0.822558
0.811528
0.78248
0.371116
1.29426
1.29918
1.58812
1.39954
1.29358
1.15938
1.05269
1.79496
0.726489
0.594571
0.64308
0.546071
0.537443
0.652711
0.61111
0.485547
0.475006
0.466334
0.412691
0.391037
0.436773
0.713654
0.720259
1.29532
1.08678
0.607702
1.79
0.0877748
0.289844
0.0816078
0.0737749
0.356024
0.277969
2.29
0.0532865
0.187927
2.7875
2.29
1.91455
1.91477
1.6599
1.66267
1.52191
1.28794
1.41539
1.16618
1.16793
1.41065
2.17688
2.52958
2.79627
2.67739
3.00821
2.58722
2.86085
2.42689
2.40651
2.45506
2.46798
2.41679
2.41129
2.32391
2.26115
2.28253
2.2359
2.33619
2.10289
2.11211
2.33246
2.24311
2.27257
2.2028
2.19356
2.64508
2.55154
2.03484
2.10156
2.20147
2.25836
1.9802
1.88029
2.92922
3.22404
2.79
2.29
1.79001
1.57331
1.52764
1.30966
1.04822
1.01129
0.958532
1.00242
0.94704
1.05972
1.10576
0.909699
1.31203
1.07096
1.05918
1.07971
0.868586
0.83157
1.26123
1.03127
1.26474
1.06305
1.06715
0.840179
1.33023
0.862596
0.595162
0.491543
0.221058
0.677046
0.643314
0.233426
0.428653
0.400976
0.41804
0.653338
0.61762
0.617619
0.43836
1.78932
1.54617
1.26907
1.07452
1.04094
0.844997
1.2666
0.757476
0.95376
0.955348
0.7586
0.652158
0.623029
0.419964
0.477363
0.254591
0.223057
2.29
2.79
2.66415
2.66387
2.91787
2.91651
3.20377
0.0633923
0.0526193
0.0557602
0.0554767
0.170799
0.199317
1.78945
0.869334
1.07485
0.683887
1.24824
1.26393
0.875728
1.05457
0.76638
0.656572
0.763482
0.952434
0.949904
0.0653803
0.0736064
0.0745751
0.209227
0.252158
0.502446
0.434607
0.324668
2.29
2.79
0.206553
0.0555452
0.396484
0.60158
0.97958
0.790079
0.786275
0.968013
0.918261
0.922237
0.791444
0.980149
0.660857
0.613924
0.746978
0.831779
0.853555
0.543757
0.457429
0.411785
0.258998
0.260972
0.211777
0.219242
0.346013
0.331942
0.149342
0.161769
0.0630375
0.0212674
0.0619401
0.0945528
0.037364
0.255493
0.21552
0.162531
0.0630465
0.0954733
0.0634314
0.141932
0.225726
0.309842
0.372602
0.32696
1.04744
0.96326
0.951773
0.91168
0.916171
0.976268
0.841694
0.830591
0.746984
0.66162
1.00894
0.972402
0.916583
0.845546
1.25709
0.227424
0.062498
0.0462845
0.0624137
0.700155
0.472032
0.427899
0.237086
0.189853
0.209349
0.402606
0.201144
0.932398
0.669262
0.934575
0.743447
0.316225
0.220566
0.381268
0.0778948
0.0643485
0.0659941
0.0547058
0.054368
0.0591137
0.223712
0.180237
0.264577
0.0510359
0.0612385
0.181636
0.0517437
0.078495
0.064004
0.267548
1.06441
0.829005
1.27148
0.888788
0.0725191
0.0744293
0.238331
0.431821
0.247697
0.83714
0.644115
0.691251
0.472507
0.623411
0.474192
0.30311
0.675785
0.46075
2.04293
2.02531
1.77461
1.81633
1.73301
1.80815
1.63952
1.45159
1.61482
1.56005
1.5266
1.02221
1.06387
1.24874
1.37889
1.80252
1.73345
1.62569
1.46527
1.45137
1.06184
0.768738
1.16107
1.359
1.16843
1.35711
2.01994
1.80796
1.80959
1.61189
1.44495
1.61879
1.45105
1.45802
1.62159
1.81272
0.340067
0.56015
0.0826408
0.492704
0.47889
0.0862296
0.24653
2.45559
2.47496
2.28402
2.78125
2.47078
2.7846
2.28142
2.23256
2.78534
2.89863
3.37988
3.31194
3.30653
3.30061
1.78164
2.27765
1.78534
2.29466
1.50928
1.09555
1.2916
0.463562
0.770002
0.784843
0.335211
0.301798
0.624422
1.29323
2.78336
3.06242
2.62352
2.83663
2.7657
3.02556
3.53376
3.31418
3.5361
3.93077
3.30555
3.2927
3.39975
2.78534
3.79219
3.59944
3.29603
3.61924
3.32509
3.81419
3.58982
3.2219
3.6057
3.22149
3.79874
3.63631
3.79459
2.56974
2.28571
1.79
1.78645
2.28326
0.337893
0.189359
0.27137
0.0771261
0.0741017
1.08645
0.918168
0.613117
1.41434
1.41373
1.16247
1.16115
1.40356
1.54285
1.14749
2.92738
0.259005
0.0616081
0.170453
0.0769723
0.867393
1.06924
1.0127
0.936924
0.844898
0.68918
0.595881
0.634027
0.901187
0.829771
0.528958
0.537622
0.346708
0.342077
0.264712
0.049552
0.152798
3.14137
3.0411
3.18816
2.88804
2.92157
2.6717
2.50984
2.65029
2.64893
2.70828
2.68038
2.72689
2.6366
2.56836
2.55564
2.5321
2.48391
2.72031
2.76799
3.02967
2.81219
2.49306
2.42993
2.47962
2.33003
2.79166
2.74524
2.56672
2.58128
2.70805
2.64802
2.54838
2.68546
2.6118
2.5058
2.42798
2.4937
2.3273
2.27696
2.22562
3.08874
3.62767
3.79689
3.42962
3.29374
3.52816
3.15474
3.01108
3.22285
3.11121
2.98033
3.3414
3.27643
2.795
3.03233
2.97067
1.77705
2.43933
1.99591
2.25562
2.21866
1.94611
2.44493
1.59737
1.67689
2.03833
2.68911
2.96543
2.84406
3.08416
1.28757
1.516
1.17236
1.41388
1.16441
1.31459
3.05656
2.8121
3.08728
3.2699
2.15074
2.16111
2.39294
2.50965
2.27165
2.72113
2.81219
3.01904
2.48491
2.88794
2.45273
2.41952
2.66381
2.94647
2.84765
1.91191
2.07262
1.90912
1.66763
1.70258
1.80419
2.08497
2.03667
2.41648
2.20521
1.48209
1.38105
1.43447
1.36954
1.4379
1.33108
1.54894
1.50596
1.5092
1.55333
1.2943
1.51109
1.30236
1.35231
1.29515
1.05338
1.01152
1.06288
0.963759
1.31714
1.18798
1.23366
1.22641
1.16836
1.12364
1.13334
1.00247
1.30387
0.858545
1.11052
0.716049
0.907728
0.770593
0.836272
1.45031
1.40666
1.61794
1.58373
1.63471
1.52204
1.64396
1.50204
1.77832
1.85101
1.63176
1.65963
1.57497
1.77464
1.71875
1.72848
1.79632
1.78525
1.58757
1.67753
1.76723
0.0790166
0.363055
0.662254
0.486655
0.453449
0.0655734
0.187053
0.772562
0.791387
0.277455
0.0204833
0.0537145
0.0306348
0.0584698
0.0433552
0.0856494
0.0911086
0.0586153
0.339134
0.318308
0.247937
0.210789
0.154973
0.160174
0.299569
0.160401
0.136563
0.0612088
0.147574
0.707313
0.637607
0.748037
0.580417
0.534896
0.672002
0.423634
0.46673
0.459366
0.669074
0.531403
0.431355
0.376979
0.145403
0.216158
0.319865
0.20569
0.0554887
0.0643676
1.10219
1.16929
1.18095
1.11823
1.1419
1.03174
1.04867
0.979661
0.935681
1.0576
0.882109
1.24356
0.864979
0.823266
0.609967
0.655681
0.727784
0.774469
1.28817
1.03773
0.833468
0.588119
0.0777481
0.0806105
0.269185
0.252081
1.79071
1.48924
1.31455
1.35788
1.41472
1.40791
1.30173
1.34067
1.24319
1.23192
1.45477
1.59323
2.03263
1.73493
1.90442
1.64818
1.78682
1.78055
1.91107
1.27918
1.28676
0.988846
1.2603
2.28504
0.852547
0.666004
0.756383
0.535998
0.589059
0.591637
0.512046
0.351397
0.396991
0.448844
0.393512
1.79053
1.57892
1.47913
1.02158
1.26092
1.04006
0.684514
0.665768
0.471667
0.455402
2.29
0.0760874
0.082234
0.337302
0.783147
0.253614
2.79
0.0535557
0.191745
3.27146
2.80279
2.40288
2.40646
2.16227
2.1621
2.05129
1.89997
2.07783
1.89321
1.66063
1.6671
1.2849
1.33767
1.39339
1.44041
1.51514
1.3
1.17427
1.22971
1.12612
1.05516
1.28635
1.46736
2.67105
3.03988
3.04179
2.92437
2.83455
2.83145
3.28439
3.16812
3.27789
3.3879
2.65029
2.6552
2.71052
2.70599
2.74047
2.52523
2.56791
2.57365
3.12459
2.8377
3.02838
2.43088
2.54523
2.46933
2.50503
2.33128
2.43303
2.65915
2.7282
2.75028
2.75375
2.6894
2.55972
2.65574
3.58945
3.47648
3.22369
3.62137
3.44106
2.79
2.30428
2.04273
2.04246
1.82503
2.01025
1.45732
1.44129
1.6043
1.81427
1.59417
1.62556
1.81682
1.72454
1.81654
1.612
1.44578
1.47334
1.26309
1.17724
1.12291
1.0363
1.1818
1.17805
1.18396
1.16802
1.35367
1.45487
1.1644
1.3456
1.15801
0.970398
1.15116
0.963234
0.958781
1.15504
0.762384
0.766191
0.761994
1.3505
1.16467
1.34896
1.3493
0.958948
0.959758
1.15163
0.758467
0.760421
0.841209
1.53668
1.46922
1.53581
1.54201
1.34889
1.15734
1.34646
0.555658
0.347916
0.558281
0.387577
0.300759
0.289128
0.57558
0.570148
0.47563
0.383697
0.0486707
0.0533255
0.154293
0.139137
0.264034
0.0437049
0.137061
0.378397
0.368688
0.566978
0.565863
0.470815
0.571073
0.318154
2.28729
1.81001
1.6187
1.15893
1.34717
1.16132
1.15257
0.968898
1.34689
0.56665
0.573581
0.20136
0.300613
0.380449
0.373672
0.392937
0.0568263
0.0511233
0.147316
0.150055
2.79
3.20624
3.16566
3.16404
3.41855
3.41558
3.46289
3.45764
0.0449306
0.0391796
0.132378
0.146876
0.0516821
0.158693
0.962417
0.76513
0.770313
0.964842
1.14706
1.15634
0.573439
0.763344
0.571211
1.35399
1.34859
1.35049
0.0495933
0.151463
0.270166
0.0505075
0.275264
0.133355
0.385489
0.382475
0.198474
0.199176
2.79
0.254099
0.208142
0.150033
0.0227125
0.063901
0.0498575
0.049775
0.158387
0.207625
0.214329
0.0708879
0.280542
0.341006
1.03601
1.17317
1.12322
1.37627
1.32146
1.38177
1.23494
1.00993
0.868473
0.900068
0.470573
0.66202
0.212233
0.320661
0.517627
0.47573
0.296321
0.309799
0.168198
0.158367
0.0587466
0.0507177
0.0447333
0.0520611
0.158033
0.19712
0.416862
1.01406
0.968956
0.895143
0.712874
0.783999
0.73257
0.816759
0.772665
0.64128
0.616824
0.563538
0.577755
0.660889
1.09513
0.800734
0.741934
0.789742
0.655355
0.603947
0.595252
0.0767943
0.0854634
0.246146
0.315426
0.0497898
0.154747
0.531311
0.519303
0.241754
0.278595
0.26832
0.206277
0.193927
0.403753
0.406599
0.462958
0.449099
0.349791
0.339074
0.0432253
0.136136
0.0515743
0.0578451
0.181095
0.0626551
0.0714835
0.963384
0.956243
0.767148
0.771233
0.0480862
0.0600069
0.219499
0.144265
0.294889
0.567508
0.569304
0.379406
0.384688
0.0594196
0.152905
0.305976
0.952923
0.768753
0.580916
0.574028
0.388051
0.381768
0.0612566
0.305975
0.158912
2.22138
2.26575
2.02148
2.05099
1.97199
2.28939
2.05278
2.19671
1.98555
1.99459
1.92086
1.72599
1.91892
1.72656
1.73881
1.80001
1.91816
1.72753
1.55069
1.54265
1.51421
1.47038
1.54099
1.48609
1.35047
1.35451
1.40129
1.40479
1.34977
1.59397
1.61346
1.55765
1.72565
1.67482
1.72685
1.68264
1.54009
1.34776
1.93777
1.07864
1.07445
0.78015
1.1921
1.15838
1.09912
1.09718
1.1636
1.14507
1.0182
0.945946
1.02799
0.967058
0.916704
1.29274
1.30347
1.21166
1.23445
1.54495
1.47086
1.50458
1.54745
1.45699
1.29097
1.30839
1.40183
1.35926
1.23958
1.19874
1.72898
1.78884
1.91486
1.53955
1.53241
0.589368
0.574011
0.644586
0.619584
0.666074
0.892431
0.873332
0.810818
0.726057
0.734552
0.80421
2.20354
2.25553
2.04783
2.00066
2.28506
2.03959
2.00592
1.91984
1.92005
1.72862
1.73206
1.92125
1.91806
1.73141
1.72635
1.53989
1.53941
1.53806
0.075965
0.259564
0.45573
0.522926
0.515671
0.400515
0.386016
0.441599
0.445389
0.199502
0.508229
0.569202
0.438166
0.379842
0.358748
0.0596734
0.185294
2.45041
2.59878
2.62934
2.48061
2.62115
2.8594
2.50068
2.86084
2.78291
2.62033
2.86004
2.46549
2.45558
2.51073
2.84608
2.78501
2.62982
2.59241
2.45555
2.30328
2.25907
2.25177
2.32117
2.34221
2.25744
2.25905
2.32075
2.31186
2.11785
2.12109
3.34785
3.27662
3.5803
3.26904
3.27725
2.78643
2.78534
3.80954
3.71208
3.81231
3.6395
3.29024
3.61881
3.22162
3.79729
3.23706
3.80429
3.64676
3.3003
1.78389
2.4178
2.28086
1.78715
2.28445
1.57421
1.79004
1.29876
0.781953
1.28986
0.311489
0.805235
0.440108
0.787407
0.463072
0.310753
0.0750514
0.0619682
0.0714378
0.219784
0.807082
0.770438
0.33932
0.207148
0.420763
1.28748
3.29248
3.51194
3.18635
2.82112
3.5385
3.29039
3.23076
3.72588
3.6667
3.79754
4.03008
3.79321
3.7167
3.74905
4.02374
4.05092
4.11659
4.49238
4.13095
4.56906
4.26054
4.26701
3.29216
2.79832
4.26584
3.79395
4.06025
3.92426
3.46334
3.63085
4.05944
3.47059
3.6442
3.66504
3.45605
3.86603
3.87287
3.85726
3.88414
3.41264
3.63109
3.66668
3.17063
3.43212
3.43839
4.29942
4.1727
4.1332
3.85299
3.92791
3.83894
3.46251
3.62612
4.05762
3.64176
3.84992
3.89498
4.2811
4.08189
4.25999
2.40183
2.58879
2.64013
2.55972
2.3732
2.42325
2.15958
2.14356
1.9145
1.91455
1.6623
1.66238
1.67607
1.92385
1.9955
2.41497
2.44894
2.16708
0.0711346
0.0621584
0.0618813
0.196142
0.163528
1.28178
1.27303
0.954769
1.0587
0.757768
0.714703
0.801968
0.853477
0.682227
0.592633
0.543406
0.643298
0.480059
0.214436
0.666148
0.472758
0.418921
0.428697
0.345034
1.54857
1.54927
1.28426
1.28444
1.45569
1.28475
1.53945
1.45212
1.28285
1.10982
1.77608
1.79001
1.59654
1.65734
1.84388
1.47941
0.0642622
1.09254
1.26487
1.18332
1.08855
0.984624
1.19026
1.12736
1.20685
1.1712
1.11975
1.04027
0.97314
0.959553
1.04865
1.00081
0.778449
0.835541
0.765725
0.780963
0.844018
0.922069
0.915266
0.787028
0.590199
0.594095
0.634649
0.568425
0.528706
0.548464
0.634846
0.720369
0.752554
0.704583
0.642728
0.399596
0.411967
0.461827
0.463157
0.408512
0.912813
0.522123
0.369753
0.905748
0.796585
0.851879
0.923683
0.970198
0.878774
0.242865
0.162917
0.251216
0.0451892
0.0518904
3.06448
3.29168
3.18365
3.23913
3.12436
3.23791
3.17735
3.11886
3.04392
3.0007
3.03955
2.99422
3.35573
3.35615
3.31975
3.31848
2.82996
2.93221
2.88083
2.88362
2.94247
2.79921
2.8019
2.75402
3.03454
2.52479
2.73093
2.66742
2.73209
2.56783
3.10251
3.16788
3.00238
2.93635
3.22079
3.13504
2.909
2.87712
2.77694
2.56221
2.86488
2.65939
2.72551
2.66206
3.37244
4.05965
3.78373
3.8926
3.51252
4.01278
3.76529
4.33057
4.08203
4.16329
3.82227
3.87316
3.47232
3.70279
3.62768
3.60799
3.56005
3.63872
3.58837
3.7334
3.48757
3.27818
3.53853
3.45174
3.23239
3.35974
3.39226
3.40197
3.33233
3.09164
1.91586
1.65458
1.72408
2.00709
1.93662
2.01715
1.9329
1.81734
1.86628
1.84713
1.78384
1.79944
2.17937
2.12166
2.07666
2.10323
2.16575
1.97404
2.08842
1.86033
2.10386
2.16219
2.09771
2.1473
1.78549
2.32998
2.13659
2.53677
2.69597
2.33498
2.23514
2.15749
2.25966
2.24564
1.9448
2.01234
1.9033
1.83378
1.75018
1.76509
1.923
2.02771
2.08226
2.12109
1.5781
1.7676
1.26845
1.69453
1.71832
1.60673
1.58105
1.62423
1.64658
1.50524
3.19473
3.44018
3.02996
2.85305
3.58459
1.32427
1.32547
1.38282
1.41509
1.3789
1.30752
1.25222
1.25372
1.20755
1.65241
1.46803
1.33089
1.39121
1.38299
1.24417
3.24258
3.28109
3.49007
3.50389
2.85096
3.10059
2.5948
3.25624
3.4345
3.73295
3.69475
2.25658
2.07952
2.06657
2.32865
2.47109
2.46324
2.6057
2.54132
2.31426
2.18878
2.14147
2.1782
2.24063
2.24657
3.20005
3.01815
3.05236
2.65159
3.07946
2.8666
2.98721
1.84328
1.83431
1.91527
1.90439
1.98372
1.94421
1.95776
2.24492
2.08928
1.86228
1.67521
1.81408
1.74488
1.88496
1.92406
1.99518
2.03167
1.96922
2.02748
2.08478
2.15332
2.10319
2.09874
1.43635
1.52324
1.38366
1.67402
1.58011
1.32863
0.986489
1.04505
1.38916
1.24203
1.19091
1.24156
1.13197
0.937334
1.38809
1.38017
1.2564
1.18288
0.926753
0.779709
0.839559
0.791995
0.891413
0.98104
0.746424
1.05872
1.04729
1.43891
1.5938
1.52559
1.85053
1.67458
1.64604
1.58585
1.46662
1.64698
1.81776
1.73395
1.90473
1.96079
1.77265
1.95458
1.97108
1.82987
1.91671
1.96685
1.77459
0.314634
0.0772293
0.783487
0.642998
0.72954
0.783722
0.516879
0.317386
0.490861
0.796062
0.461107
0.27625
0.062438
1.07202
0.778596
0.470336
0.317931
0.0647992
0.194743
0.0430315
0.0498673
0.0250047
0.0660431
0.339448
0.25268
0.209041
0.15232
0.387976
0.20463
0.313235
0.397362
0.0517161
0.150947
0.730665
0.643874
0.581908
0.531033
0.58753
0.444471
0.587641
0.514828
0.708812
0.376581
0.406472
0.64
0.054344
0.187277
0.198223
1.12366
1.17116
1.03714
0.980199
0.930465
1.05198
0.976523
1.18035
0.843574
1.32042
1.37083
1.23367
1.37558
1.7865
1.28335
1.06152
1.26354
0.82148
0.992639
0.867983
0.622575
0.426184
0.533994
0.0549923
0.0713131
0.15076
0.288955
0.260203
0.140802
0.279359
2.28724
1.78262
1.47575
1.77346
1.52681
1.68474
1.45823
1.4332
1.57587
1.57752
1.52031
1.52642
1.57905
1.78705
1.46695
1.63113
1.62989
1.53555
1.58677
1.67311
1.75079
1.70077
1.69999
1.73128
1.76532
2.47823
2.29108
2.18519
2.28474
2.06952
1.78561
1.89784
2.08322
2.09315
2.13324
2.14398
2.01467
2.02479
1.96998
1.92033
1.89638
1.97438
1.91515
2.15296
1.79916
1.82802
1.84415
1.28641
1.29
0.925581
1.09437
1.45907
1.27606
1.37781
1.18467
2.42359
2.79843
0.728062
0.982522
0.79138
0.59495
0.665156
0.872037
0.779598
0.400255
0.209205
2.28404
2.05757
2.00267
1.83742
1.82229
1.63662
1.67314
1.47031
1.78498
1.52839
0.957142
1.15682
0.959502
1.34965
0.567826
0.766761
0.768563
0.572783
0.381027
0.385043
0.384423
2.79
0.0692959
0.0765804
0.348753
0.243978
1.032
0.769559
0.762049
0.534509
0.212451
3.29774
0.0591252
0.25205
3.29039
3.80188
2.596
2.59867
2.87376
2.47813
2.49143
2.28682
2.07631
1.83047
1.87248
2.10634
2.15864
2.19373
2.03431
1.99243
1.95354
1.90872
1.38787
1.32549
1.384
1.23864
1.44238
1.579
1.52859
1.58426
3.16217
3.28948
3.07578
3.19212
3.16032
3.1055
3.09637
3.14918
2.96785
3.02299
3.01462
2.92912
2.95655
2.95682
2.88952
2.95623
2.8799
2.78942
2.79713
2.92463
2.87944
2.79695
3.42665
3.6273
3.52024
3.2501
3.24431
3.18285
3.42445
3.38242
3.33283
3.3874
3.32718
3.51926
3.25753
3.67784
3.32726
2.88074
2.93627
2.78119
2.91033
3.10055
3.16106
3.00078
3.12287
2.65704
2.87989
3.62811
3.71933
3.61333
3.4479
3.47421
3.63651
3.85158
3.71712
3.97425
3.89101
3.63547
3.23898
3.8924
3.8833
3.99792
2.80606
2.47918
2.57439
2.82103
2.36072
2.01279
2.2547
2.04131
2.04425
2.08628
2.25275
2.26318
2.24329
2.02791
2.01169
1.91932
1.92446
1.73148
1.73857
2.23945
1.53669
1.54338
1.53859
1.35233
1.53352
1.54891
1.73101
1.92095
1.93301
1.72653
1.92233
1.72266
1.73002
1.91552
1.73642
1.91802
1.72928
1.54743
0.200386
0.202131
0.196637
0.384916
0.20371
0.194559
0.056905
0.0552447
0.0586912
0.0528465
0.20586
0.384853
0.19939
2.78689
0.0580452
0.197361
0.0548713
0.0566966
3.20624
3.45541
3.45235
3.45924
3.455
3.63217
3.63423
3.58338
3.70075
3.69391
0.0543463
0.0562956
0.054947
0.0553847
0.193224
0.0531134
0.193845
0.0477846
0.0499352
0.140482
0.198403
0.0662933
0.0730505
0.9888
0.98943
0.39329
0.296488
0.397885
0.0432761
0.148226
0.203406
0.255358
0.21073
0.401771
0.342191
0.539769
0.453118
0.204302
0.13151
0.201923
0.245845
0.201117
0.202042
0.252658
0.12401
0.315681
0.339686
0.347628
0.182764
0.0459064
0.0377717
0.0450946
0.0376772
0.0491148
0.551014
0.514232
0.300336
0.444176
0.347678
0.393712
0.475305
1.10644
1.09995
1.14493
1.15087
0.9361
0.987921
1.0367
1.03004
0.975193
0.930457
0.865457
0.859671
0.932473
0.989347
0.845862
1.13013
1.18756
1.202
1.04319
1.19053
0.0519653
0.0607724
0.0507715
0.0581882
0.0320863
0.0248124
0.13015
0.14166
0.104318
0.24681
0.202976
0.160382
0.123292
0.139254
0.267926
0.364538
0.318645
0.0520873
0.192259
0.0496942
0.0653946
0.151206
0.0586105
0.0584954
0.0583898
0.199179
0.197555
0.0527888
0.201284
0.331666
0.0247333
0.0590882
0.0315131
0.246024
0.210126
0.250499
0.207243
0.315178
0.0671078
0.0907001
0.147091
0.156751
2.31465
2.3075
2.25603
2.25577
2.31464
2.25601
2.1238
2.26291
2.34985
2.3286
2.26272
2.25137
2.34812
2.30172
2.32746
2.11984
2.06723
2.37507
2.60744
2.28166
2.23644
2.32743
2.35667
2.34759
2.26489
2.4886
2.30645
2.32442
2.26569
2.25521
2.11633
2.11373
2.17111
2.1805
2.11989
2.05968
2.25221
2.30907
2.2528
2.31057
1.97392
1.91138
1.92806
1.88461
1.98726
2.05624
2.05557
1.79696
1.89497
1.84654
1.84194
1.60401
1.79973
1.67182
1.70868
1.77735
1.77264
1.86474
1.78271
1.2947
2.27557
1.16226
1.0969
1.15193
1.05865
0.933245
0.975391
1.0268
0.856574
0.94921
1.29306
1.0497
0.651537
0.59828
0.656228
0.885358
0.815577
0.765146
0.720566
1.5365