# Probe 0 (2.4 3 4.5)
# Probe 1 (4.8 0.9 4.5)
# Probe 2 (4.8 3 4.5)
# Probe 3 (4.8 5.4 4.5)
#         Probe               0               1               2               3
#          Time
            500       297.29377       296.92822       297.29464       296.42512
           1000       297.25321       296.85888       297.24768       296.59218
           1500       297.20327       296.79838       297.19605       297.00675
           2000       297.14574       296.82143       297.21166       296.75523
           2500       297.18295       296.82849        297.2892       296.72878
           3000       297.33728        296.9627       297.36262       296.57363
           3500       297.41562        296.9027       297.31142        296.5847
           4000       297.26031       296.90374       297.39764        296.5533
