# Probe 0 (2.4 3 4.5)
# Probe 1 (4.8 0.9 4.5)
# Probe 2 (4.8 3 4.5)
# Probe 3 (4.8 5.4 4.5)
#         Probe               0               1               2               3
#          Time
             10       297.29377       296.92822       297.29464       296.42512
             20       297.25321       296.85888       297.24768       296.59218
