# Probe 0 (2.4 3 4.5)
# Probe 1 (4.8 0.9 4.5)
# Probe 2 (4.8 3 4.5)
# Probe 3 (4.8 5.4 4.5)
#         Probe               0               1               2               3
#          Time
              1       298.14963          298.15          298.15          298.15
