# Probe 0 (16 10 0)
# Probe 1 (18 10 0)
#       Probe             0             1
#        Time
            1       2.30025       2.46272
            2       1.01854       1.02659
            3        4.5103       4.71018
            4        6.9461       7.37628
            5       7.80594        8.3458
            6       7.73234       8.24088
            7       7.26365       7.68736
            8       6.86536       7.21654
            9       6.66162       6.95746
           10       6.58902       6.87036
