# Probe 0 (16 10 0)
# Probe 1 (18 10 0)
#       Probe             0             1
#        Time
            1        298.15        298.15
            2        298.15        298.15
            3        298.15        298.15
            4        298.15        298.15
            5        298.15        298.15
            6        298.15        298.15
            7        298.15        298.15
            8       298.151        298.15
            9       298.151        298.15
           10       298.151        298.15
