# Probe 0 (16 10 0)
# Probe 1 (18 10 0)
#       Probe             0             1
#        Time
            1             (0.00050591 -0.0186212 0.0477924)             (-0.00461803 -0.00324394 -2.77316e-05)
            2             (-0.0211407 -0.1079 0.133598)             (0.0161437 -0.0508799 -0.00227839)
            3             (0.0276804 -0.22784 0.31618)             (0.00010949 -0.0715392 0.000859757)
            4             (-0.0153404 -0.246677 0.232916)             (-0.135805 -0.145999 -0.000150132)
            5             (-0.0857055 -0.340787 0.320064)             (-0.195959 -0.179741 -0.00170318)
            6             (-0.161713 -0.40297 0.339772)             (-0.263245 -0.207836 -0.00227339)
            7             (-0.212663 -0.479439 0.365988)             (-0.309985 -0.213831 -0.00145665)
            8             (-0.215649 -0.529519 0.447806)             (-0.336766 -0.21041 -0.000439787)
            9             (-0.211051 -0.545172 0.427863)             (-0.348707 -0.202412 -2.84349e-05)
           10             (-0.182221 -0.580478 0.450039)             (-0.357744 -0.195676 -3.48486e-05)
