# Residuals    
# Time         	Ux             	Uy             	Uz             	k              	p_rgh          	T              	omega          
1              	0.00000000e+00	0.00000000e+00	1.00000000e+00	1.00000000e+00	1.00000000e+00	1.00000000e+00	6.87441390e-01
